n -t 0 -s 0 -S DLABEL -l "TCP" -L ""
n -t 0 -s 1 -S DLABEL -l "UDP" -L ""
V -t * -v 1.0a5 -a 0
A -t * -n 1 -p 0 -o 0x7fffffff -c 30 -a 1
A -t * -h 1 -m 1073741823 -s 0
n -t * -a 4 -s 4 -S UP -v circle -c orange -i orange
n -t * -a 0 -s 0 -S UP -v circle -c red -i red
n -t * -a 5 -s 5 -S UP -v circle -c yellow -i yellow
n -t * -a 1 -s 1 -S UP -v circle -c blue -i blue
n -t * -a 2 -s 2 -S UP -v circle -c purple -i purple
n -t * -a 3 -s 3 -S UP -v circle -c orange -i orange
l -t * -s 0 -d 2 -S UP -r 512000 -D 0.01 -c black -o right-down
l -t * -s 1 -d 2 -S UP -r 512000 -D 0.01 -c black -o right-up
l -t * -s 2 -d 3 -S UP -r 256000 -D 0.01 -c black -o right
X -t * -n 6 -r 0.5Mb -D 40ms -o left
L -t * -s 6 -d 3 -o up
L -t * -s 6 -d 4 -o down
L -t * -s 6 -d 5 -o up
+ -t 0.1 -s 0 -d 2 -p tcp -e 40 -c 1 -i 0 -a 1 -x {0.0 4.0 0 ------- null}
- -t 0.1 -s 0 -d 2 -p tcp -e 40 -c 1 -i 0 -a 1 -x {0.0 4.0 0 ------- null}
h -t 0.1 -s 0 -d 2 -p tcp -e 40 -c 1 -i 0 -a 1 -x {0.0 4.0 -1 ------- null}
r -t 0.110625 -s 0 -d 2 -p tcp -e 40 -c 1 -i 0 -a 1 -x {0.0 4.0 0 ------- null}
d -t 0.110625 -s 2 -d 3 -p tcp -e 40 -c 1 -i 0 -a 1 -x {0.0 4.0 0 ------- null}
+ -t 0.2 -s 1 -d 2 -p cbr -e 500 -c 2 -i 1 -a 2 -x {1.0 5.0 0 ------- null}
- -t 0.2 -s 1 -d 2 -p cbr -e 500 -c 2 -i 1 -a 2 -x {1.0 5.0 0 ------- null}
h -t 0.2 -s 1 -d 2 -p cbr -e 500 -c 2 -i 1 -a 2 -x {1.0 5.0 -1 ------- null}
+ -t 0.205 -s 1 -d 2 -p cbr -e 500 -c 2 -i 2 -a 2 -x {1.0 5.0 1 ------- null}
- -t 0.2078125 -s 1 -d 2 -p cbr -e 500 -c 2 -i 2 -a 2 -x {1.0 5.0 1 ------- null}
h -t 0.2078125 -s 1 -d 2 -p cbr -e 500 -c 2 -i 2 -a 2 -x {1.0 5.0 -1 ------- null}
+ -t 0.21 -s 1 -d 2 -p cbr -e 500 -c 2 -i 3 -a 2 -x {1.0 5.0 2 ------- null}
+ -t 0.215 -s 1 -d 2 -p cbr -e 500 -c 2 -i 4 -a 2 -x {1.0 5.0 3 ------- null}
- -t 0.215625 -s 1 -d 2 -p cbr -e 500 -c 2 -i 3 -a 2 -x {1.0 5.0 2 ------- null}
h -t 0.215625 -s 1 -d 2 -p cbr -e 500 -c 2 -i 3 -a 2 -x {1.0 5.0 -1 ------- null}
r -t 0.2178125 -s 1 -d 2 -p cbr -e 500 -c 2 -i 1 -a 2 -x {1.0 5.0 0 ------- null}
+ -t 0.2178125 -s 2 -d 3 -p cbr -e 500 -c 2 -i 1 -a 2 -x {1.0 5.0 0 ------- null}
- -t 0.2178125 -s 2 -d 3 -p cbr -e 500 -c 2 -i 1 -a 2 -x {1.0 5.0 0 ------- null}
h -t 0.2178125 -s 2 -d 3 -p cbr -e 500 -c 2 -i 1 -a 2 -x {1.0 5.0 -1 ------- null}
+ -t 0.22 -s 1 -d 2 -p cbr -e 500 -c 2 -i 5 -a 2 -x {1.0 5.0 4 ------- null}
- -t 0.2234375 -s 1 -d 2 -p cbr -e 500 -c 2 -i 4 -a 2 -x {1.0 5.0 3 ------- null}
h -t 0.2234375 -s 1 -d 2 -p cbr -e 500 -c 2 -i 4 -a 2 -x {1.0 5.0 -1 ------- null}
+ -t 0.225 -s 1 -d 2 -p cbr -e 500 -c 2 -i 6 -a 2 -x {1.0 5.0 5 ------- null}
r -t 0.225625 -s 1 -d 2 -p cbr -e 500 -c 2 -i 2 -a 2 -x {1.0 5.0 1 ------- null}
+ -t 0.225625 -s 2 -d 3 -p cbr -e 500 -c 2 -i 2 -a 2 -x {1.0 5.0 1 ------- null}
+ -t 0.23 -s 1 -d 2 -p cbr -e 500 -c 2 -i 7 -a 2 -x {1.0 5.0 6 ------- null}
- -t 0.23125 -s 1 -d 2 -p cbr -e 500 -c 2 -i 5 -a 2 -x {1.0 5.0 4 ------- null}
h -t 0.23125 -s 1 -d 2 -p cbr -e 500 -c 2 -i 5 -a 2 -x {1.0 5.0 -1 ------- null}
r -t 0.2334375 -s 1 -d 2 -p cbr -e 500 -c 2 -i 3 -a 2 -x {1.0 5.0 2 ------- null}
+ -t 0.2334375 -s 2 -d 3 -p cbr -e 500 -c 2 -i 3 -a 2 -x {1.0 5.0 2 ------- null}
- -t 0.2334375 -s 2 -d 3 -p cbr -e 500 -c 2 -i 2 -a 2 -x {1.0 5.0 1 ------- null}
h -t 0.2334375 -s 2 -d 3 -p cbr -e 500 -c 2 -i 2 -a 2 -x {1.0 5.0 -1 ------- null}
+ -t 0.235 -s 1 -d 2 -p cbr -e 500 -c 2 -i 8 -a 2 -x {1.0 5.0 7 ------- null}
- -t 0.2390625 -s 1 -d 2 -p cbr -e 500 -c 2 -i 6 -a 2 -x {1.0 5.0 5 ------- null}
h -t 0.2390625 -s 1 -d 2 -p cbr -e 500 -c 2 -i 6 -a 2 -x {1.0 5.0 -1 ------- null}
+ -t 0.24 -s 1 -d 2 -p cbr -e 500 -c 2 -i 9 -a 2 -x {1.0 5.0 8 ------- null}
r -t 0.24125 -s 1 -d 2 -p cbr -e 500 -c 2 -i 4 -a 2 -x {1.0 5.0 3 ------- null}
+ -t 0.24125 -s 2 -d 3 -p cbr -e 500 -c 2 -i 4 -a 2 -x {1.0 5.0 3 ------- null}
r -t 0.2434375 -s 2 -d 3 -p cbr -e 500 -c 2 -i 1 -a 2 -x {1.0 5.0 0 ------- null}
h -t 0.2434375 -s 3 -d 6 -p cbr -e 500 -c 2 -i 1 -a 2 -x {1.0 5.0 0 ------- null}
+ -t 0.245 -s 1 -d 2 -p cbr -e 500 -c 2 -i 10 -a 2 -x {1.0 5.0 9 ------- null}
- -t 0.246875 -s 1 -d 2 -p cbr -e 500 -c 2 -i 7 -a 2 -x {1.0 5.0 6 ------- null}
h -t 0.246875 -s 1 -d 2 -p cbr -e 500 -c 2 -i 7 -a 2 -x {1.0 5.0 -1 ------- null}
r -t 0.2490625 -s 1 -d 2 -p cbr -e 500 -c 2 -i 5 -a 2 -x {1.0 5.0 4 ------- null}
+ -t 0.2490625 -s 2 -d 3 -p cbr -e 500 -c 2 -i 5 -a 2 -x {1.0 5.0 4 ------- null}
- -t 0.2490625 -s 2 -d 3 -p cbr -e 500 -c 2 -i 3 -a 2 -x {1.0 5.0 2 ------- null}
h -t 0.2490625 -s 2 -d 3 -p cbr -e 500 -c 2 -i 3 -a 2 -x {1.0 5.0 -1 ------- null}
+ -t 0.25 -s 1 -d 2 -p cbr -e 500 -c 2 -i 11 -a 2 -x {1.0 5.0 10 ------- null}
- -t 0.2546875 -s 1 -d 2 -p cbr -e 500 -c 2 -i 8 -a 2 -x {1.0 5.0 7 ------- null}
h -t 0.2546875 -s 1 -d 2 -p cbr -e 500 -c 2 -i 8 -a 2 -x {1.0 5.0 -1 ------- null}
+ -t 0.255 -s 1 -d 2 -p cbr -e 500 -c 2 -i 12 -a 2 -x {1.0 5.0 11 ------- null}
r -t 0.256875 -s 1 -d 2 -p cbr -e 500 -c 2 -i 6 -a 2 -x {1.0 5.0 5 ------- null}
+ -t 0.256875 -s 2 -d 3 -p cbr -e 500 -c 2 -i 6 -a 2 -x {1.0 5.0 5 ------- null}
r -t 0.2590625 -s 2 -d 3 -p cbr -e 500 -c 2 -i 2 -a 2 -x {1.0 5.0 1 ------- null}
h -t 0.2590625 -s 3 -d 6 -p cbr -e 500 -c 2 -i 2 -a 2 -x {1.0 5.0 1 ------- null}
+ -t 0.26 -s 1 -d 2 -p cbr -e 500 -c 2 -i 13 -a 2 -x {1.0 5.0 12 ------- null}
- -t 0.2625 -s 1 -d 2 -p cbr -e 500 -c 2 -i 9 -a 2 -x {1.0 5.0 8 ------- null}
h -t 0.2625 -s 1 -d 2 -p cbr -e 500 -c 2 -i 9 -a 2 -x {1.0 5.0 -1 ------- null}
r -t 0.2646875 -s 1 -d 2 -p cbr -e 500 -c 2 -i 7 -a 2 -x {1.0 5.0 6 ------- null}
+ -t 0.2646875 -s 2 -d 3 -p cbr -e 500 -c 2 -i 7 -a 2 -x {1.0 5.0 6 ------- null}
- -t 0.2646875 -s 2 -d 3 -p cbr -e 500 -c 2 -i 4 -a 2 -x {1.0 5.0 3 ------- null}
h -t 0.2646875 -s 2 -d 3 -p cbr -e 500 -c 2 -i 4 -a 2 -x {1.0 5.0 -1 ------- null}
+ -t 0.265 -s 1 -d 2 -p cbr -e 500 -c 2 -i 14 -a 2 -x {1.0 5.0 13 ------- null}
+ -t 0.27 -s 1 -d 2 -p cbr -e 500 -c 2 -i 15 -a 2 -x {1.0 5.0 14 ------- null}
- -t 0.2703125 -s 1 -d 2 -p cbr -e 500 -c 2 -i 10 -a 2 -x {1.0 5.0 9 ------- null}
h -t 0.2703125 -s 1 -d 2 -p cbr -e 500 -c 2 -i 10 -a 2 -x {1.0 5.0 -1 ------- null}
r -t 0.2725 -s 1 -d 2 -p cbr -e 500 -c 2 -i 8 -a 2 -x {1.0 5.0 7 ------- null}
+ -t 0.2725 -s 2 -d 3 -p cbr -e 500 -c 2 -i 8 -a 2 -x {1.0 5.0 7 ------- null}
r -t 0.2746875 -s 2 -d 3 -p cbr -e 500 -c 2 -i 3 -a 2 -x {1.0 5.0 2 ------- null}
h -t 0.2746875 -s 3 -d 6 -p cbr -e 500 -c 2 -i 3 -a 2 -x {1.0 5.0 2 ------- null}
+ -t 0.275 -s 1 -d 2 -p cbr -e 500 -c 2 -i 16 -a 2 -x {1.0 5.0 15 ------- null}
- -t 0.278125 -s 1 -d 2 -p cbr -e 500 -c 2 -i 11 -a 2 -x {1.0 5.0 10 ------- null}
h -t 0.278125 -s 1 -d 2 -p cbr -e 500 -c 2 -i 11 -a 2 -x {1.0 5.0 -1 ------- null}
+ -t 0.28 -s 1 -d 2 -p cbr -e 500 -c 2 -i 17 -a 2 -x {1.0 5.0 16 ------- null}
r -t 0.2803125 -s 1 -d 2 -p cbr -e 500 -c 2 -i 9 -a 2 -x {1.0 5.0 8 ------- null}
+ -t 0.2803125 -s 2 -d 3 -p cbr -e 500 -c 2 -i 9 -a 2 -x {1.0 5.0 8 ------- null}
- -t 0.2803125 -s 2 -d 3 -p cbr -e 500 -c 2 -i 5 -a 2 -x {1.0 5.0 4 ------- null}
h -t 0.2803125 -s 2 -d 3 -p cbr -e 500 -c 2 -i 5 -a 2 -x {1.0 5.0 -1 ------- null}
+ -t 0.2834375 -s 3 -d 6 -p cbr -e 500 -c 2 -i 1 -a 2 -x {1.0 5.0 0 ------- null}
- -t 0.2834375 -s 3 -d 6 -p cbr -e 500 -c 2 -i 1 -a 2 -x {1.0 5.0 0 ------- null}
h -t 0.2834375 -s 3 -d 6 -p cbr -e 500 -c 2 -i 1 -a 2 -x {1.0 5.0 -1 ------- null}
d -t 0.2834415 -s 4 -d 6 -p cbr -e 500 -c 2 -i 1 -a 2 -x {1.0 5.0 0 ------- null}
+ -t 0.285 -s 1 -d 2 -p cbr -e 500 -c 2 -i 18 -a 2 -x {1.0 5.0 17 ------- null}
- -t 0.2859375 -s 1 -d 2 -p cbr -e 500 -c 2 -i 12 -a 2 -x {1.0 5.0 11 ------- null}
h -t 0.2859375 -s 1 -d 2 -p cbr -e 500 -c 2 -i 12 -a 2 -x {1.0 5.0 -1 ------- null}
r -t 0.288125 -s 1 -d 2 -p cbr -e 500 -c 2 -i 10 -a 2 -x {1.0 5.0 9 ------- null}
+ -t 0.288125 -s 2 -d 3 -p cbr -e 500 -c 2 -i 10 -a 2 -x {1.0 5.0 9 ------- null}
+ -t 0.29 -s 1 -d 2 -p cbr -e 500 -c 2 -i 19 -a 2 -x {1.0 5.0 18 ------- null}
r -t 0.2903125 -s 2 -d 3 -p cbr -e 500 -c 2 -i 4 -a 2 -x {1.0 5.0 3 ------- null}
h -t 0.2903125 -s 3 -d 6 -p cbr -e 500 -c 2 -i 4 -a 2 -x {1.0 5.0 3 ------- null}
- -t 0.29375 -s 1 -d 2 -p cbr -e 500 -c 2 -i 13 -a 2 -x {1.0 5.0 12 ------- null}
h -t 0.29375 -s 1 -d 2 -p cbr -e 500 -c 2 -i 13 -a 2 -x {1.0 5.0 -1 ------- null}
+ -t 0.295 -s 1 -d 2 -p cbr -e 500 -c 2 -i 20 -a 2 -x {1.0 5.0 19 ------- null}
r -t 0.2959375 -s 1 -d 2 -p cbr -e 500 -c 2 -i 11 -a 2 -x {1.0 5.0 10 ------- null}
d -t 0.2959375 -s 2 -d 3 -p cbr -e 500 -c 2 -i 11 -a 2 -x {1.0 5.0 10 ------- null}
- -t 0.2959375 -s 2 -d 3 -p cbr -e 500 -c 2 -i 6 -a 2 -x {1.0 5.0 5 ------- null}
h -t 0.2959375 -s 2 -d 3 -p cbr -e 500 -c 2 -i 6 -a 2 -x {1.0 5.0 -1 ------- null}
+ -t 0.2990625 -s 3 -d 6 -p cbr -e 500 -c 2 -i 2 -a 2 -x {1.0 5.0 1 ------- null}
- -t 0.2990625 -s 3 -d 6 -p cbr -e 500 -c 2 -i 2 -a 2 -x {1.0 5.0 1 ------- null}
h -t 0.2990625 -s 3 -d 6 -p cbr -e 500 -c 2 -i 2 -a 2 -x {1.0 5.0 -1 ------- null}
d -t 0.2990665 -s 4 -d 6 -p cbr -e 500 -c 2 -i 2 -a 2 -x {1.0 5.0 1 ------- null}
+ -t 0.3 -s 1 -d 2 -p cbr -e 500 -c 2 -i 21 -a 2 -x {1.0 5.0 20 ------- null}
- -t 0.3015625 -s 1 -d 2 -p cbr -e 500 -c 2 -i 14 -a 2 -x {1.0 5.0 13 ------- null}
h -t 0.3015625 -s 1 -d 2 -p cbr -e 500 -c 2 -i 14 -a 2 -x {1.0 5.0 -1 ------- null}
r -t 0.30375 -s 1 -d 2 -p cbr -e 500 -c 2 -i 12 -a 2 -x {1.0 5.0 11 ------- null}
+ -t 0.30375 -s 2 -d 3 -p cbr -e 500 -c 2 -i 12 -a 2 -x {1.0 5.0 11 ------- null}
+ -t 0.305 -s 1 -d 2 -p cbr -e 500 -c 2 -i 22 -a 2 -x {1.0 5.0 21 ------- null}
r -t 0.3059375 -s 2 -d 3 -p cbr -e 500 -c 2 -i 5 -a 2 -x {1.0 5.0 4 ------- null}
h -t 0.3059375 -s 3 -d 6 -p cbr -e 500 -c 2 -i 5 -a 2 -x {1.0 5.0 4 ------- null}
- -t 0.309375 -s 1 -d 2 -p cbr -e 500 -c 2 -i 15 -a 2 -x {1.0 5.0 14 ------- null}
h -t 0.309375 -s 1 -d 2 -p cbr -e 500 -c 2 -i 15 -a 2 -x {1.0 5.0 -1 ------- null}
+ -t 0.31 -s 1 -d 2 -p cbr -e 500 -c 2 -i 23 -a 2 -x {1.0 5.0 22 ------- null}
r -t 0.3115625 -s 1 -d 2 -p cbr -e 500 -c 2 -i 13 -a 2 -x {1.0 5.0 12 ------- null}
+ -t 0.3115625 -s 2 -d 3 -p cbr -e 500 -c 2 -i 13 -a 2 -x {1.0 5.0 12 ------- null}
- -t 0.3115625 -s 2 -d 3 -p cbr -e 500 -c 2 -i 7 -a 2 -x {1.0 5.0 6 ------- null}
h -t 0.3115625 -s 2 -d 3 -p cbr -e 500 -c 2 -i 7 -a 2 -x {1.0 5.0 -1 ------- null}
+ -t 0.3146875 -s 3 -d 6 -p cbr -e 500 -c 2 -i 3 -a 2 -x {1.0 5.0 2 ------- null}
- -t 0.3146875 -s 3 -d 6 -p cbr -e 500 -c 2 -i 3 -a 2 -x {1.0 5.0 2 ------- null}
h -t 0.3146875 -s 3 -d 6 -p cbr -e 500 -c 2 -i 3 -a 2 -x {1.0 5.0 -1 ------- null}
d -t 0.3146915 -s 4 -d 6 -p cbr -e 500 -c 2 -i 3 -a 2 -x {1.0 5.0 2 ------- null}
+ -t 0.315 -s 1 -d 2 -p cbr -e 500 -c 2 -i 24 -a 2 -x {1.0 5.0 23 ------- null}
- -t 0.3171875 -s 1 -d 2 -p cbr -e 500 -c 2 -i 16 -a 2 -x {1.0 5.0 15 ------- null}
h -t 0.3171875 -s 1 -d 2 -p cbr -e 500 -c 2 -i 16 -a 2 -x {1.0 5.0 -1 ------- null}
r -t 0.319375 -s 1 -d 2 -p cbr -e 500 -c 2 -i 14 -a 2 -x {1.0 5.0 13 ------- null}
+ -t 0.319375 -s 2 -d 3 -p cbr -e 500 -c 2 -i 14 -a 2 -x {1.0 5.0 13 ------- null}
+ -t 0.32 -s 1 -d 2 -p cbr -e 500 -c 2 -i 25 -a 2 -x {1.0 5.0 24 ------- null}
r -t 0.3215625 -s 2 -d 3 -p cbr -e 500 -c 2 -i 6 -a 2 -x {1.0 5.0 5 ------- null}
h -t 0.3215625 -s 3 -d 6 -p cbr -e 500 -c 2 -i 6 -a 2 -x {1.0 5.0 5 ------- null}
r -t 0.3234415 -s 6 -d 5 -p cbr -e 500 -c 2 -i 1 -a 2 -x {1.0 5.0 0 ------- null}
- -t 0.325 -s 1 -d 2 -p cbr -e 500 -c 2 -i 17 -a 2 -x {1.0 5.0 16 ------- null}
h -t 0.325 -s 1 -d 2 -p cbr -e 500 -c 2 -i 17 -a 2 -x {1.0 5.0 -1 ------- null}
+ -t 0.325 -s 1 -d 2 -p cbr -e 500 -c 2 -i 26 -a 2 -x {1.0 5.0 25 ------- null}
r -t 0.3271875 -s 1 -d 2 -p cbr -e 500 -c 2 -i 15 -a 2 -x {1.0 5.0 14 ------- null}
+ -t 0.3271875 -s 2 -d 3 -p cbr -e 500 -c 2 -i 15 -a 2 -x {1.0 5.0 14 ------- null}
- -t 0.3271875 -s 2 -d 3 -p cbr -e 500 -c 2 -i 8 -a 2 -x {1.0 5.0 7 ------- null}
h -t 0.3271875 -s 2 -d 3 -p cbr -e 500 -c 2 -i 8 -a 2 -x {1.0 5.0 -1 ------- null}
+ -t 0.33 -s 1 -d 2 -p cbr -e 500 -c 2 -i 27 -a 2 -x {1.0 5.0 26 ------- null}
+ -t 0.3303125 -s 3 -d 6 -p cbr -e 500 -c 2 -i 4 -a 2 -x {1.0 5.0 3 ------- null}
- -t 0.3303125 -s 3 -d 6 -p cbr -e 500 -c 2 -i 4 -a 2 -x {1.0 5.0 3 ------- null}
h -t 0.3303125 -s 3 -d 6 -p cbr -e 500 -c 2 -i 4 -a 2 -x {1.0 5.0 -1 ------- null}
d -t 0.3303165 -s 4 -d 6 -p cbr -e 500 -c 2 -i 4 -a 2 -x {1.0 5.0 3 ------- null}
- -t 0.3328125 -s 1 -d 2 -p cbr -e 500 -c 2 -i 18 -a 2 -x {1.0 5.0 17 ------- null}
h -t 0.3328125 -s 1 -d 2 -p cbr -e 500 -c 2 -i 18 -a 2 -x {1.0 5.0 -1 ------- null}
r -t 0.335 -s 1 -d 2 -p cbr -e 500 -c 2 -i 16 -a 2 -x {1.0 5.0 15 ------- null}
+ -t 0.335 -s 2 -d 3 -p cbr -e 500 -c 2 -i 16 -a 2 -x {1.0 5.0 15 ------- null}
+ -t 0.335 -s 1 -d 2 -p cbr -e 500 -c 2 -i 28 -a 2 -x {1.0 5.0 27 ------- null}
r -t 0.3371875 -s 2 -d 3 -p cbr -e 500 -c 2 -i 7 -a 2 -x {1.0 5.0 6 ------- null}
h -t 0.3371875 -s 3 -d 6 -p cbr -e 500 -c 2 -i 7 -a 2 -x {1.0 5.0 6 ------- null}
r -t 0.3390665 -s 6 -d 5 -p cbr -e 500 -c 2 -i 2 -a 2 -x {1.0 5.0 1 ------- null}
+ -t 0.34 -s 1 -d 2 -p cbr -e 500 -c 2 -i 29 -a 2 -x {1.0 5.0 28 ------- null}
- -t 0.340625 -s 1 -d 2 -p cbr -e 500 -c 2 -i 19 -a 2 -x {1.0 5.0 18 ------- null}
h -t 0.340625 -s 1 -d 2 -p cbr -e 500 -c 2 -i 19 -a 2 -x {1.0 5.0 -1 ------- null}
r -t 0.3428125 -s 1 -d 2 -p cbr -e 500 -c 2 -i 17 -a 2 -x {1.0 5.0 16 ------- null}
+ -t 0.3428125 -s 2 -d 3 -p cbr -e 500 -c 2 -i 17 -a 2 -x {1.0 5.0 16 ------- null}
- -t 0.3428125 -s 2 -d 3 -p cbr -e 500 -c 2 -i 9 -a 2 -x {1.0 5.0 8 ------- null}
h -t 0.3428125 -s 2 -d 3 -p cbr -e 500 -c 2 -i 9 -a 2 -x {1.0 5.0 -1 ------- null}
+ -t 0.345 -s 1 -d 2 -p cbr -e 500 -c 2 -i 30 -a 2 -x {1.0 5.0 29 ------- null}
+ -t 0.3459375 -s 3 -d 6 -p cbr -e 500 -c 2 -i 5 -a 2 -x {1.0 5.0 4 ------- null}
- -t 0.3459375 -s 3 -d 6 -p cbr -e 500 -c 2 -i 5 -a 2 -x {1.0 5.0 4 ------- null}
h -t 0.3459375 -s 3 -d 6 -p cbr -e 500 -c 2 -i 5 -a 2 -x {1.0 5.0 -1 ------- null}
d -t 0.3459415 -s 4 -d 6 -p cbr -e 500 -c 2 -i 5 -a 2 -x {1.0 5.0 4 ------- null}
- -t 0.3484375 -s 1 -d 2 -p cbr -e 500 -c 2 -i 20 -a 2 -x {1.0 5.0 19 ------- null}
h -t 0.3484375 -s 1 -d 2 -p cbr -e 500 -c 2 -i 20 -a 2 -x {1.0 5.0 -1 ------- null}
+ -t 0.35 -s 1 -d 2 -p cbr -e 500 -c 2 -i 31 -a 2 -x {1.0 5.0 30 ------- null}
r -t 0.350625 -s 1 -d 2 -p cbr -e 500 -c 2 -i 18 -a 2 -x {1.0 5.0 17 ------- null}
+ -t 0.350625 -s 2 -d 3 -p cbr -e 500 -c 2 -i 18 -a 2 -x {1.0 5.0 17 ------- null}
r -t 0.3528125 -s 2 -d 3 -p cbr -e 500 -c 2 -i 8 -a 2 -x {1.0 5.0 7 ------- null}
h -t 0.3528125 -s 3 -d 6 -p cbr -e 500 -c 2 -i 8 -a 2 -x {1.0 5.0 7 ------- null}
r -t 0.3546915 -s 6 -d 5 -p cbr -e 500 -c 2 -i 3 -a 2 -x {1.0 5.0 2 ------- null}
+ -t 0.355 -s 1 -d 2 -p cbr -e 500 -c 2 -i 32 -a 2 -x {1.0 5.0 31 ------- null}
- -t 0.35625 -s 1 -d 2 -p cbr -e 500 -c 2 -i 21 -a 2 -x {1.0 5.0 20 ------- null}
h -t 0.35625 -s 1 -d 2 -p cbr -e 500 -c 2 -i 21 -a 2 -x {1.0 5.0 -1 ------- null}
r -t 0.3584375 -s 1 -d 2 -p cbr -e 500 -c 2 -i 19 -a 2 -x {1.0 5.0 18 ------- null}
+ -t 0.3584375 -s 2 -d 3 -p cbr -e 500 -c 2 -i 19 -a 2 -x {1.0 5.0 18 ------- null}
- -t 0.3584375 -s 2 -d 3 -p cbr -e 500 -c 2 -i 10 -a 2 -x {1.0 5.0 9 ------- null}
h -t 0.3584375 -s 2 -d 3 -p cbr -e 500 -c 2 -i 10 -a 2 -x {1.0 5.0 -1 ------- null}
+ -t 0.36 -s 1 -d 2 -p cbr -e 500 -c 2 -i 33 -a 2 -x {1.0 5.0 32 ------- null}
+ -t 0.3615625 -s 3 -d 6 -p cbr -e 500 -c 2 -i 6 -a 2 -x {1.0 5.0 5 ------- null}
- -t 0.3615625 -s 3 -d 6 -p cbr -e 500 -c 2 -i 6 -a 2 -x {1.0 5.0 5 ------- null}
h -t 0.3615625 -s 3 -d 6 -p cbr -e 500 -c 2 -i 6 -a 2 -x {1.0 5.0 -1 ------- null}
d -t 0.3615665 -s 4 -d 6 -p cbr -e 500 -c 2 -i 6 -a 2 -x {1.0 5.0 5 ------- null}
- -t 0.3640625 -s 1 -d 2 -p cbr -e 500 -c 2 -i 22 -a 2 -x {1.0 5.0 21 ------- null}
h -t 0.3640625 -s 1 -d 2 -p cbr -e 500 -c 2 -i 22 -a 2 -x {1.0 5.0 -1 ------- null}
+ -t 0.365 -s 1 -d 2 -p cbr -e 500 -c 2 -i 34 -a 2 -x {1.0 5.0 33 ------- null}
r -t 0.36625 -s 1 -d 2 -p cbr -e 500 -c 2 -i 20 -a 2 -x {1.0 5.0 19 ------- null}
+ -t 0.36625 -s 2 -d 3 -p cbr -e 500 -c 2 -i 20 -a 2 -x {1.0 5.0 19 ------- null}
r -t 0.3684375 -s 2 -d 3 -p cbr -e 500 -c 2 -i 9 -a 2 -x {1.0 5.0 8 ------- null}
h -t 0.3684375 -s 3 -d 6 -p cbr -e 500 -c 2 -i 9 -a 2 -x {1.0 5.0 8 ------- null}
+ -t 0.37 -s 1 -d 2 -p cbr -e 500 -c 2 -i 35 -a 2 -x {1.0 5.0 34 ------- null}
r -t 0.3703165 -s 6 -d 5 -p cbr -e 500 -c 2 -i 4 -a 2 -x {1.0 5.0 3 ------- null}
- -t 0.371875 -s 1 -d 2 -p cbr -e 500 -c 2 -i 23 -a 2 -x {1.0 5.0 22 ------- null}
h -t 0.371875 -s 1 -d 2 -p cbr -e 500 -c 2 -i 23 -a 2 -x {1.0 5.0 -1 ------- null}
r -t 0.3740625 -s 1 -d 2 -p cbr -e 500 -c 2 -i 21 -a 2 -x {1.0 5.0 20 ------- null}
+ -t 0.3740625 -s 2 -d 3 -p cbr -e 500 -c 2 -i 21 -a 2 -x {1.0 5.0 20 ------- null}
- -t 0.3740625 -s 2 -d 3 -p cbr -e 500 -c 2 -i 12 -a 2 -x {1.0 5.0 11 ------- null}
h -t 0.3740625 -s 2 -d 3 -p cbr -e 500 -c 2 -i 12 -a 2 -x {1.0 5.0 -1 ------- null}
+ -t 0.375 -s 1 -d 2 -p cbr -e 500 -c 2 -i 36 -a 2 -x {1.0 5.0 35 ------- null}
+ -t 0.3771875 -s 3 -d 6 -p cbr -e 500 -c 2 -i 7 -a 2 -x {1.0 5.0 6 ------- null}
- -t 0.3771875 -s 3 -d 6 -p cbr -e 500 -c 2 -i 7 -a 2 -x {1.0 5.0 6 ------- null}
h -t 0.3771875 -s 3 -d 6 -p cbr -e 500 -c 2 -i 7 -a 2 -x {1.0 5.0 -1 ------- null}
d -t 0.3771915 -s 4 -d 6 -p cbr -e 500 -c 2 -i 7 -a 2 -x {1.0 5.0 6 ------- null}
- -t 0.3796875 -s 1 -d 2 -p cbr -e 500 -c 2 -i 24 -a 2 -x {1.0 5.0 23 ------- null}
h -t 0.3796875 -s 1 -d 2 -p cbr -e 500 -c 2 -i 24 -a 2 -x {1.0 5.0 -1 ------- null}
+ -t 0.38 -s 1 -d 2 -p cbr -e 500 -c 2 -i 37 -a 2 -x {1.0 5.0 36 ------- null}
r -t 0.381875 -s 1 -d 2 -p cbr -e 500 -c 2 -i 22 -a 2 -x {1.0 5.0 21 ------- null}
+ -t 0.381875 -s 2 -d 3 -p cbr -e 500 -c 2 -i 22 -a 2 -x {1.0 5.0 21 ------- null}
r -t 0.3840625 -s 2 -d 3 -p cbr -e 500 -c 2 -i 10 -a 2 -x {1.0 5.0 9 ------- null}
h -t 0.3840625 -s 3 -d 6 -p cbr -e 500 -c 2 -i 10 -a 2 -x {1.0 5.0 9 ------- null}
+ -t 0.385 -s 1 -d 2 -p cbr -e 500 -c 2 -i 38 -a 2 -x {1.0 5.0 37 ------- null}
r -t 0.3859415 -s 6 -d 5 -p cbr -e 500 -c 2 -i 5 -a 2 -x {1.0 5.0 4 ------- null}
- -t 0.3875 -s 1 -d 2 -p cbr -e 500 -c 2 -i 25 -a 2 -x {1.0 5.0 24 ------- null}
h -t 0.3875 -s 1 -d 2 -p cbr -e 500 -c 2 -i 25 -a 2 -x {1.0 5.0 -1 ------- null}
r -t 0.3896875 -s 1 -d 2 -p cbr -e 500 -c 2 -i 23 -a 2 -x {1.0 5.0 22 ------- null}
+ -t 0.3896875 -s 2 -d 3 -p cbr -e 500 -c 2 -i 23 -a 2 -x {1.0 5.0 22 ------- null}
- -t 0.3896875 -s 2 -d 3 -p cbr -e 500 -c 2 -i 13 -a 2 -x {1.0 5.0 12 ------- null}
h -t 0.3896875 -s 2 -d 3 -p cbr -e 500 -c 2 -i 13 -a 2 -x {1.0 5.0 -1 ------- null}
+ -t 0.39 -s 1 -d 2 -p cbr -e 500 -c 2 -i 39 -a 2 -x {1.0 5.0 38 ------- null}
+ -t 0.3928125 -s 3 -d 6 -p cbr -e 500 -c 2 -i 8 -a 2 -x {1.0 5.0 7 ------- null}
- -t 0.3928125 -s 3 -d 6 -p cbr -e 500 -c 2 -i 8 -a 2 -x {1.0 5.0 7 ------- null}
h -t 0.3928125 -s 3 -d 6 -p cbr -e 500 -c 2 -i 8 -a 2 -x {1.0 5.0 -1 ------- null}
d -t 0.3928165 -s 4 -d 6 -p cbr -e 500 -c 2 -i 8 -a 2 -x {1.0 5.0 7 ------- null}
+ -t 0.395 -s 1 -d 2 -p cbr -e 500 -c 2 -i 40 -a 2 -x {1.0 5.0 39 ------- null}
- -t 0.3953125 -s 1 -d 2 -p cbr -e 500 -c 2 -i 26 -a 2 -x {1.0 5.0 25 ------- null}
h -t 0.3953125 -s 1 -d 2 -p cbr -e 500 -c 2 -i 26 -a 2 -x {1.0 5.0 -1 ------- null}
r -t 0.3975 -s 1 -d 2 -p cbr -e 500 -c 2 -i 24 -a 2 -x {1.0 5.0 23 ------- null}
+ -t 0.3975 -s 2 -d 3 -p cbr -e 500 -c 2 -i 24 -a 2 -x {1.0 5.0 23 ------- null}
r -t 0.3996875 -s 2 -d 3 -p cbr -e 500 -c 2 -i 12 -a 2 -x {1.0 5.0 11 ------- null}
h -t 0.3996875 -s 3 -d 6 -p cbr -e 500 -c 2 -i 12 -a 2 -x {1.0 5.0 11 ------- null}
+ -t 0.4 -s 1 -d 2 -p cbr -e 500 -c 2 -i 41 -a 2 -x {1.0 5.0 40 ------- null}
r -t 0.4015665 -s 6 -d 5 -p cbr -e 500 -c 2 -i 6 -a 2 -x {1.0 5.0 5 ------- null}
- -t 0.403125 -s 1 -d 2 -p cbr -e 500 -c 2 -i 27 -a 2 -x {1.0 5.0 26 ------- null}
h -t 0.403125 -s 1 -d 2 -p cbr -e 500 -c 2 -i 27 -a 2 -x {1.0 5.0 -1 ------- null}
+ -t 0.405 -s 1 -d 2 -p cbr -e 500 -c 2 -i 42 -a 2 -x {1.0 5.0 41 ------- null}
r -t 0.4053125 -s 1 -d 2 -p cbr -e 500 -c 2 -i 25 -a 2 -x {1.0 5.0 24 ------- null}
+ -t 0.4053125 -s 2 -d 3 -p cbr -e 500 -c 2 -i 25 -a 2 -x {1.0 5.0 24 ------- null}
- -t 0.4053125 -s 2 -d 3 -p cbr -e 500 -c 2 -i 14 -a 2 -x {1.0 5.0 13 ------- null}
h -t 0.4053125 -s 2 -d 3 -p cbr -e 500 -c 2 -i 14 -a 2 -x {1.0 5.0 -1 ------- null}
+ -t 0.4084375 -s 3 -d 6 -p cbr -e 500 -c 2 -i 9 -a 2 -x {1.0 5.0 8 ------- null}
- -t 0.4084375 -s 3 -d 6 -p cbr -e 500 -c 2 -i 9 -a 2 -x {1.0 5.0 8 ------- null}
h -t 0.4084375 -s 3 -d 6 -p cbr -e 500 -c 2 -i 9 -a 2 -x {1.0 5.0 -1 ------- null}
d -t 0.4084415 -s 4 -d 6 -p cbr -e 500 -c 2 -i 9 -a 2 -x {1.0 5.0 8 ------- null}
+ -t 0.41 -s 1 -d 2 -p cbr -e 500 -c 2 -i 43 -a 2 -x {1.0 5.0 42 ------- null}
- -t 0.4109375 -s 1 -d 2 -p cbr -e 500 -c 2 -i 28 -a 2 -x {1.0 5.0 27 ------- null}
h -t 0.4109375 -s 1 -d 2 -p cbr -e 500 -c 2 -i 28 -a 2 -x {1.0 5.0 -1 ------- null}
r -t 0.413125 -s 1 -d 2 -p cbr -e 500 -c 2 -i 26 -a 2 -x {1.0 5.0 25 ------- null}
+ -t 0.413125 -s 2 -d 3 -p cbr -e 500 -c 2 -i 26 -a 2 -x {1.0 5.0 25 ------- null}
+ -t 0.415 -s 1 -d 2 -p cbr -e 500 -c 2 -i 44 -a 2 -x {1.0 5.0 43 ------- null}
r -t 0.4153125 -s 2 -d 3 -p cbr -e 500 -c 2 -i 13 -a 2 -x {1.0 5.0 12 ------- null}
h -t 0.4153125 -s 3 -d 6 -p cbr -e 500 -c 2 -i 13 -a 2 -x {1.0 5.0 12 ------- null}
r -t 0.4171915 -s 6 -d 5 -p cbr -e 500 -c 2 -i 7 -a 2 -x {1.0 5.0 6 ------- null}
- -t 0.41875 -s 1 -d 2 -p cbr -e 500 -c 2 -i 29 -a 2 -x {1.0 5.0 28 ------- null}
h -t 0.41875 -s 1 -d 2 -p cbr -e 500 -c 2 -i 29 -a 2 -x {1.0 5.0 -1 ------- null}
+ -t 0.42 -s 1 -d 2 -p cbr -e 500 -c 2 -i 45 -a 2 -x {1.0 5.0 44 ------- null}
r -t 0.4209375 -s 1 -d 2 -p cbr -e 500 -c 2 -i 27 -a 2 -x {1.0 5.0 26 ------- null}
+ -t 0.4209375 -s 2 -d 3 -p cbr -e 500 -c 2 -i 27 -a 2 -x {1.0 5.0 26 ------- null}
- -t 0.4209375 -s 2 -d 3 -p cbr -e 500 -c 2 -i 15 -a 2 -x {1.0 5.0 14 ------- null}
h -t 0.4209375 -s 2 -d 3 -p cbr -e 500 -c 2 -i 15 -a 2 -x {1.0 5.0 -1 ------- null}
+ -t 0.4240625 -s 3 -d 6 -p cbr -e 500 -c 2 -i 10 -a 2 -x {1.0 5.0 9 ------- null}
- -t 0.4240625 -s 3 -d 6 -p cbr -e 500 -c 2 -i 10 -a 2 -x {1.0 5.0 9 ------- null}
h -t 0.4240625 -s 3 -d 6 -p cbr -e 500 -c 2 -i 10 -a 2 -x {1.0 5.0 -1 ------- null}
d -t 0.4240665 -s 4 -d 6 -p cbr -e 500 -c 2 -i 10 -a 2 -x {1.0 5.0 9 ------- null}
+ -t 0.425 -s 1 -d 2 -p cbr -e 500 -c 2 -i 46 -a 2 -x {1.0 5.0 45 ------- null}
- -t 0.4265625 -s 1 -d 2 -p cbr -e 500 -c 2 -i 30 -a 2 -x {1.0 5.0 29 ------- null}
h -t 0.4265625 -s 1 -d 2 -p cbr -e 500 -c 2 -i 30 -a 2 -x {1.0 5.0 -1 ------- null}
r -t 0.42875 -s 1 -d 2 -p cbr -e 500 -c 2 -i 28 -a 2 -x {1.0 5.0 27 ------- null}
+ -t 0.42875 -s 2 -d 3 -p cbr -e 500 -c 2 -i 28 -a 2 -x {1.0 5.0 27 ------- null}
+ -t 0.43 -s 1 -d 2 -p cbr -e 500 -c 2 -i 47 -a 2 -x {1.0 5.0 46 ------- null}
r -t 0.4309375 -s 2 -d 3 -p cbr -e 500 -c 2 -i 14 -a 2 -x {1.0 5.0 13 ------- null}
h -t 0.4309375 -s 3 -d 6 -p cbr -e 500 -c 2 -i 14 -a 2 -x {1.0 5.0 13 ------- null}
r -t 0.4328165 -s 6 -d 5 -p cbr -e 500 -c 2 -i 8 -a 2 -x {1.0 5.0 7 ------- null}
- -t 0.434375 -s 1 -d 2 -p cbr -e 500 -c 2 -i 31 -a 2 -x {1.0 5.0 30 ------- null}
h -t 0.434375 -s 1 -d 2 -p cbr -e 500 -c 2 -i 31 -a 2 -x {1.0 5.0 -1 ------- null}
+ -t 0.435 -s 1 -d 2 -p cbr -e 500 -c 2 -i 48 -a 2 -x {1.0 5.0 47 ------- null}
r -t 0.4365625 -s 1 -d 2 -p cbr -e 500 -c 2 -i 29 -a 2 -x {1.0 5.0 28 ------- null}
+ -t 0.4365625 -s 2 -d 3 -p cbr -e 500 -c 2 -i 29 -a 2 -x {1.0 5.0 28 ------- null}
- -t 0.4365625 -s 2 -d 3 -p cbr -e 500 -c 2 -i 16 -a 2 -x {1.0 5.0 15 ------- null}
h -t 0.4365625 -s 2 -d 3 -p cbr -e 500 -c 2 -i 16 -a 2 -x {1.0 5.0 -1 ------- null}
+ -t 0.4396875 -s 3 -d 6 -p cbr -e 500 -c 2 -i 12 -a 2 -x {1.0 5.0 11 ------- null}
- -t 0.4396875 -s 3 -d 6 -p cbr -e 500 -c 2 -i 12 -a 2 -x {1.0 5.0 11 ------- null}
h -t 0.4396875 -s 3 -d 6 -p cbr -e 500 -c 2 -i 12 -a 2 -x {1.0 5.0 -1 ------- null}
d -t 0.4396915 -s 4 -d 6 -p cbr -e 500 -c 2 -i 12 -a 2 -x {1.0 5.0 11 ------- null}
+ -t 0.44 -s 1 -d 2 -p cbr -e 500 -c 2 -i 49 -a 2 -x {1.0 5.0 48 ------- null}
- -t 0.4421875 -s 1 -d 2 -p cbr -e 500 -c 2 -i 32 -a 2 -x {1.0 5.0 31 ------- null}
h -t 0.4421875 -s 1 -d 2 -p cbr -e 500 -c 2 -i 32 -a 2 -x {1.0 5.0 -1 ------- null}
r -t 0.444375 -s 1 -d 2 -p cbr -e 500 -c 2 -i 30 -a 2 -x {1.0 5.0 29 ------- null}
+ -t 0.444375 -s 2 -d 3 -p cbr -e 500 -c 2 -i 30 -a 2 -x {1.0 5.0 29 ------- null}
+ -t 0.445 -s 1 -d 2 -p cbr -e 500 -c 2 -i 50 -a 2 -x {1.0 5.0 49 ------- null}
r -t 0.4465625 -s 2 -d 3 -p cbr -e 500 -c 2 -i 15 -a 2 -x {1.0 5.0 14 ------- null}
h -t 0.4465625 -s 3 -d 6 -p cbr -e 500 -c 2 -i 15 -a 2 -x {1.0 5.0 14 ------- null}
r -t 0.4484415 -s 6 -d 5 -p cbr -e 500 -c 2 -i 9 -a 2 -x {1.0 5.0 8 ------- null}
- -t 0.45 -s 1 -d 2 -p cbr -e 500 -c 2 -i 33 -a 2 -x {1.0 5.0 32 ------- null}
h -t 0.45 -s 1 -d 2 -p cbr -e 500 -c 2 -i 33 -a 2 -x {1.0 5.0 -1 ------- null}
+ -t 0.45 -s 1 -d 2 -p cbr -e 500 -c 2 -i 51 -a 2 -x {1.0 5.0 50 ------- null}
r -t 0.4521875 -s 1 -d 2 -p cbr -e 500 -c 2 -i 31 -a 2 -x {1.0 5.0 30 ------- null}
+ -t 0.4521875 -s 2 -d 3 -p cbr -e 500 -c 2 -i 31 -a 2 -x {1.0 5.0 30 ------- null}
- -t 0.4521875 -s 2 -d 3 -p cbr -e 500 -c 2 -i 17 -a 2 -x {1.0 5.0 16 ------- null}
h -t 0.4521875 -s 2 -d 3 -p cbr -e 500 -c 2 -i 17 -a 2 -x {1.0 5.0 -1 ------- null}
+ -t 0.455 -s 1 -d 2 -p cbr -e 500 -c 2 -i 52 -a 2 -x {1.0 5.0 51 ------- null}
+ -t 0.4553125 -s 3 -d 6 -p cbr -e 500 -c 2 -i 13 -a 2 -x {1.0 5.0 12 ------- null}
- -t 0.4553125 -s 3 -d 6 -p cbr -e 500 -c 2 -i 13 -a 2 -x {1.0 5.0 12 ------- null}
h -t 0.4553125 -s 3 -d 6 -p cbr -e 500 -c 2 -i 13 -a 2 -x {1.0 5.0 -1 ------- null}
d -t 0.4553165 -s 4 -d 6 -p cbr -e 500 -c 2 -i 13 -a 2 -x {1.0 5.0 12 ------- null}
- -t 0.4578125 -s 1 -d 2 -p cbr -e 500 -c 2 -i 34 -a 2 -x {1.0 5.0 33 ------- null}
h -t 0.4578125 -s 1 -d 2 -p cbr -e 500 -c 2 -i 34 -a 2 -x {1.0 5.0 -1 ------- null}
r -t 0.46 -s 1 -d 2 -p cbr -e 500 -c 2 -i 32 -a 2 -x {1.0 5.0 31 ------- null}
+ -t 0.46 -s 2 -d 3 -p cbr -e 500 -c 2 -i 32 -a 2 -x {1.0 5.0 31 ------- null}
+ -t 0.46 -s 1 -d 2 -p cbr -e 500 -c 2 -i 53 -a 2 -x {1.0 5.0 52 ------- null}
r -t 0.4621875 -s 2 -d 3 -p cbr -e 500 -c 2 -i 16 -a 2 -x {1.0 5.0 15 ------- null}
h -t 0.4621875 -s 3 -d 6 -p cbr -e 500 -c 2 -i 16 -a 2 -x {1.0 5.0 15 ------- null}
r -t 0.4640665 -s 6 -d 5 -p cbr -e 500 -c 2 -i 10 -a 2 -x {1.0 5.0 9 ------- null}
+ -t 0.465 -s 1 -d 2 -p cbr -e 500 -c 2 -i 54 -a 2 -x {1.0 5.0 53 ------- null}
- -t 0.465625 -s 1 -d 2 -p cbr -e 500 -c 2 -i 35 -a 2 -x {1.0 5.0 34 ------- null}
h -t 0.465625 -s 1 -d 2 -p cbr -e 500 -c 2 -i 35 -a 2 -x {1.0 5.0 -1 ------- null}
r -t 0.4678125 -s 1 -d 2 -p cbr -e 500 -c 2 -i 33 -a 2 -x {1.0 5.0 32 ------- null}
+ -t 0.4678125 -s 2 -d 3 -p cbr -e 500 -c 2 -i 33 -a 2 -x {1.0 5.0 32 ------- null}
- -t 0.4678125 -s 2 -d 3 -p cbr -e 500 -c 2 -i 18 -a 2 -x {1.0 5.0 17 ------- null}
h -t 0.4678125 -s 2 -d 3 -p cbr -e 500 -c 2 -i 18 -a 2 -x {1.0 5.0 -1 ------- null}
+ -t 0.47 -s 1 -d 2 -p cbr -e 500 -c 2 -i 55 -a 2 -x {1.0 5.0 54 ------- null}
+ -t 0.4709375 -s 3 -d 6 -p cbr -e 500 -c 2 -i 14 -a 2 -x {1.0 5.0 13 ------- null}
- -t 0.4709375 -s 3 -d 6 -p cbr -e 500 -c 2 -i 14 -a 2 -x {1.0 5.0 13 ------- null}
h -t 0.4709375 -s 3 -d 6 -p cbr -e 500 -c 2 -i 14 -a 2 -x {1.0 5.0 -1 ------- null}
d -t 0.4709415 -s 4 -d 6 -p cbr -e 500 -c 2 -i 14 -a 2 -x {1.0 5.0 13 ------- null}
- -t 0.4734375 -s 1 -d 2 -p cbr -e 500 -c 2 -i 36 -a 2 -x {1.0 5.0 35 ------- null}
h -t 0.4734375 -s 1 -d 2 -p cbr -e 500 -c 2 -i 36 -a 2 -x {1.0 5.0 -1 ------- null}
+ -t 0.475 -s 1 -d 2 -p cbr -e 500 -c 2 -i 56 -a 2 -x {1.0 5.0 55 ------- null}
r -t 0.475625 -s 1 -d 2 -p cbr -e 500 -c 2 -i 34 -a 2 -x {1.0 5.0 33 ------- null}
+ -t 0.475625 -s 2 -d 3 -p cbr -e 500 -c 2 -i 34 -a 2 -x {1.0 5.0 33 ------- null}
r -t 0.4778125 -s 2 -d 3 -p cbr -e 500 -c 2 -i 17 -a 2 -x {1.0 5.0 16 ------- null}
h -t 0.4778125 -s 3 -d 6 -p cbr -e 500 -c 2 -i 17 -a 2 -x {1.0 5.0 16 ------- null}
r -t 0.4796915 -s 6 -d 5 -p cbr -e 500 -c 2 -i 12 -a 2 -x {1.0 5.0 11 ------- null}
+ -t 0.48 -s 1 -d 2 -p cbr -e 500 -c 2 -i 57 -a 2 -x {1.0 5.0 56 ------- null}
- -t 0.48125 -s 1 -d 2 -p cbr -e 500 -c 2 -i 37 -a 2 -x {1.0 5.0 36 ------- null}
h -t 0.48125 -s 1 -d 2 -p cbr -e 500 -c 2 -i 37 -a 2 -x {1.0 5.0 -1 ------- null}
r -t 0.4834375 -s 1 -d 2 -p cbr -e 500 -c 2 -i 35 -a 2 -x {1.0 5.0 34 ------- null}
+ -t 0.4834375 -s 2 -d 3 -p cbr -e 500 -c 2 -i 35 -a 2 -x {1.0 5.0 34 ------- null}
- -t 0.4834375 -s 2 -d 3 -p cbr -e 500 -c 2 -i 19 -a 2 -x {1.0 5.0 18 ------- null}
h -t 0.4834375 -s 2 -d 3 -p cbr -e 500 -c 2 -i 19 -a 2 -x {1.0 5.0 -1 ------- null}
+ -t 0.485 -s 1 -d 2 -p cbr -e 500 -c 2 -i 58 -a 2 -x {1.0 5.0 57 ------- null}
+ -t 0.4865625 -s 3 -d 6 -p cbr -e 500 -c 2 -i 15 -a 2 -x {1.0 5.0 14 ------- null}
- -t 0.4865625 -s 3 -d 6 -p cbr -e 500 -c 2 -i 15 -a 2 -x {1.0 5.0 14 ------- null}
h -t 0.4865625 -s 3 -d 6 -p cbr -e 500 -c 2 -i 15 -a 2 -x {1.0 5.0 -1 ------- null}
d -t 0.4865665 -s 4 -d 6 -p cbr -e 500 -c 2 -i 15 -a 2 -x {1.0 5.0 14 ------- null}
- -t 0.4890625 -s 1 -d 2 -p cbr -e 500 -c 2 -i 38 -a 2 -x {1.0 5.0 37 ------- null}
h -t 0.4890625 -s 1 -d 2 -p cbr -e 500 -c 2 -i 38 -a 2 -x {1.0 5.0 -1 ------- null}
+ -t 0.49 -s 1 -d 2 -p cbr -e 500 -c 2 -i 59 -a 2 -x {1.0 5.0 58 ------- null}
r -t 0.49125 -s 1 -d 2 -p cbr -e 500 -c 2 -i 36 -a 2 -x {1.0 5.0 35 ------- null}
+ -t 0.49125 -s 2 -d 3 -p cbr -e 500 -c 2 -i 36 -a 2 -x {1.0 5.0 35 ------- null}
r -t 0.4934375 -s 2 -d 3 -p cbr -e 500 -c 2 -i 18 -a 2 -x {1.0 5.0 17 ------- null}
h -t 0.4934375 -s 3 -d 6 -p cbr -e 500 -c 2 -i 18 -a 2 -x {1.0 5.0 17 ------- null}
+ -t 0.495 -s 1 -d 2 -p cbr -e 500 -c 2 -i 60 -a 2 -x {1.0 5.0 59 ------- null}
r -t 0.4953165 -s 6 -d 5 -p cbr -e 500 -c 2 -i 13 -a 2 -x {1.0 5.0 12 ------- null}
- -t 0.496875 -s 1 -d 2 -p cbr -e 500 -c 2 -i 39 -a 2 -x {1.0 5.0 38 ------- null}
h -t 0.496875 -s 1 -d 2 -p cbr -e 500 -c 2 -i 39 -a 2 -x {1.0 5.0 -1 ------- null}
r -t 0.4990625 -s 1 -d 2 -p cbr -e 500 -c 2 -i 37 -a 2 -x {1.0 5.0 36 ------- null}
+ -t 0.4990625 -s 2 -d 3 -p cbr -e 500 -c 2 -i 37 -a 2 -x {1.0 5.0 36 ------- null}
- -t 0.4990625 -s 2 -d 3 -p cbr -e 500 -c 2 -i 20 -a 2 -x {1.0 5.0 19 ------- null}