+ 0.1 0 2 tcp 40 ------- 1 0.0 4.0 0 0
- 0.1 0 2 tcp 40 ------- 1 0.0 4.0 0 0
r 0.110625 0 2 tcp 40 ------- 1 0.0 4.0 0 0
d 0.110625 2 3 tcp 40 ------- 1 0.0 4.0 0 0
+ 0.2 1 2 cbr 500 ------- 2 1.0 5.0 0 1
- 0.2 1 2 cbr 500 ------- 2 1.0 5.0 0 1
+ 0.205 1 2 cbr 500 ------- 2 1.0 5.0 1 2
- 0.207813 1 2 cbr 500 ------- 2 1.0 5.0 1 2
+ 0.21 1 2 cbr 500 ------- 2 1.0 5.0 2 3
+ 0.215 1 2 cbr 500 ------- 2 1.0 5.0 3 4
- 0.215625 1 2 cbr 500 ------- 2 1.0 5.0 2 3
r 0.217813 1 2 cbr 500 ------- 2 1.0 5.0 0 1
+ 0.217813 2 3 cbr 500 ------- 2 1.0 5.0 0 1
- 0.217813 2 3 cbr 500 ------- 2 1.0 5.0 0 1
+ 0.22 1 2 cbr 500 ------- 2 1.0 5.0 4 5
- 0.223438 1 2 cbr 500 ------- 2 1.0 5.0 3 4
+ 0.225 1 2 cbr 500 ------- 2 1.0 5.0 5 6
r 0.225625 1 2 cbr 500 ------- 2 1.0 5.0 1 2
+ 0.225625 2 3 cbr 500 ------- 2 1.0 5.0 1 2
+ 0.23 1 2 cbr 500 ------- 2 1.0 5.0 6 7
- 0.23125 1 2 cbr 500 ------- 2 1.0 5.0 4 5
r 0.233438 1 2 cbr 500 ------- 2 1.0 5.0 2 3
+ 0.233438 2 3 cbr 500 ------- 2 1.0 5.0 2 3
- 0.233438 2 3 cbr 500 ------- 2 1.0 5.0 1 2
+ 0.235 1 2 cbr 500 ------- 2 1.0 5.0 7 8
- 0.239063 1 2 cbr 500 ------- 2 1.0 5.0 5 6
+ 0.24 1 2 cbr 500 ------- 2 1.0 5.0 8 9
r 0.24125 1 2 cbr 500 ------- 2 1.0 5.0 3 4
+ 0.24125 2 3 cbr 500 ------- 2 1.0 5.0 3 4
r 0.243438 2 3 cbr 500 ------- 2 1.0 5.0 0 1
h 0.243438 3 6 cbr 500 ------- 2 1.0 5.0 0 1
+ 0.245 1 2 cbr 500 ------- 2 1.0 5.0 9 10
- 0.246875 1 2 cbr 500 ------- 2 1.0 5.0 6 7
r 0.249063 1 2 cbr 500 ------- 2 1.0 5.0 4 5
+ 0.249063 2 3 cbr 500 ------- 2 1.0 5.0 4 5
- 0.249063 2 3 cbr 500 ------- 2 1.0 5.0 2 3
+ 0.25 1 2 cbr 500 ------- 2 1.0 5.0 10 11
- 0.254688 1 2 cbr 500 ------- 2 1.0 5.0 7 8
+ 0.255 1 2 cbr 500 ------- 2 1.0 5.0 11 12
r 0.256875 1 2 cbr 500 ------- 2 1.0 5.0 5 6
+ 0.256875 2 3 cbr 500 ------- 2 1.0 5.0 5 6
r 0.259063 2 3 cbr 500 ------- 2 1.0 5.0 1 2
h 0.259063 3 6 cbr 500 ------- 2 1.0 5.0 1 2
+ 0.26 1 2 cbr 500 ------- 2 1.0 5.0 12 13
- 0.2625 1 2 cbr 500 ------- 2 1.0 5.0 8 9
r 0.264688 1 2 cbr 500 ------- 2 1.0 5.0 6 7
+ 0.264688 2 3 cbr 500 ------- 2 1.0 5.0 6 7
- 0.264688 2 3 cbr 500 ------- 2 1.0 5.0 3 4
+ 0.265 1 2 cbr 500 ------- 2 1.0 5.0 13 14
+ 0.27 1 2 cbr 500 ------- 2 1.0 5.0 14 15
- 0.270313 1 2 cbr 500 ------- 2 1.0 5.0 9 10
r 0.2725 1 2 cbr 500 ------- 2 1.0 5.0 7 8
+ 0.2725 2 3 cbr 500 ------- 2 1.0 5.0 7 8
r 0.274688 2 3 cbr 500 ------- 2 1.0 5.0 2 3
h 0.274688 3 6 cbr 500 ------- 2 1.0 5.0 2 3
+ 0.275 1 2 cbr 500 ------- 2 1.0 5.0 15 16
- 0.278125 1 2 cbr 500 ------- 2 1.0 5.0 10 11
+ 0.28 1 2 cbr 500 ------- 2 1.0 5.0 16 17
r 0.280313 1 2 cbr 500 ------- 2 1.0 5.0 8 9
+ 0.280313 2 3 cbr 500 ------- 2 1.0 5.0 8 9
- 0.280313 2 3 cbr 500 ------- 2 1.0 5.0 4 5
+ 0.283438 3 6 cbr 500 ------- 2 1.0 5.0 0 1
- 0.283438 3 6 cbr 500 ------- 2 1.0 5.0 0 1
d 0.283442 4 6 cbr 500 ------- 2 1.0 5.0 0 1
+ 0.285 1 2 cbr 500 ------- 2 1.0 5.0 17 18
- 0.285938 1 2 cbr 500 ------- 2 1.0 5.0 11 12
r 0.288125 1 2 cbr 500 ------- 2 1.0 5.0 9 10
+ 0.288125 2 3 cbr 500 ------- 2 1.0 5.0 9 10
+ 0.29 1 2 cbr 500 ------- 2 1.0 5.0 18 19
r 0.290313 2 3 cbr 500 ------- 2 1.0 5.0 3 4
h 0.290313 3 6 cbr 500 ------- 2 1.0 5.0 3 4
- 0.29375 1 2 cbr 500 ------- 2 1.0 5.0 12 13
+ 0.295 1 2 cbr 500 ------- 2 1.0 5.0 19 20
r 0.295938 1 2 cbr 500 ------- 2 1.0 5.0 10 11
d 0.295938 2 3 cbr 500 ------- 2 1.0 5.0 10 11
- 0.295938 2 3 cbr 500 ------- 2 1.0 5.0 5 6
+ 0.299063 3 6 cbr 500 ------- 2 1.0 5.0 1 2
- 0.299063 3 6 cbr 500 ------- 2 1.0 5.0 1 2
d 0.299067 4 6 cbr 500 ------- 2 1.0 5.0 1 2
+ 0.3 1 2 cbr 500 ------- 2 1.0 5.0 20 21
- 0.301563 1 2 cbr 500 ------- 2 1.0 5.0 13 14
r 0.30375 1 2 cbr 500 ------- 2 1.0 5.0 11 12
+ 0.30375 2 3 cbr 500 ------- 2 1.0 5.0 11 12
+ 0.305 1 2 cbr 500 ------- 2 1.0 5.0 21 22
r 0.305938 2 3 cbr 500 ------- 2 1.0 5.0 4 5
h 0.305938 3 6 cbr 500 ------- 2 1.0 5.0 4 5
- 0.309375 1 2 cbr 500 ------- 2 1.0 5.0 14 15
+ 0.31 1 2 cbr 500 ------- 2 1.0 5.0 22 23
r 0.311563 1 2 cbr 500 ------- 2 1.0 5.0 12 13
+ 0.311563 2 3 cbr 500 ------- 2 1.0 5.0 12 13
- 0.311563 2 3 cbr 500 ------- 2 1.0 5.0 6 7
+ 0.314688 3 6 cbr 500 ------- 2 1.0 5.0 2 3
- 0.314688 3 6 cbr 500 ------- 2 1.0 5.0 2 3
d 0.314692 4 6 cbr 500 ------- 2 1.0 5.0 2 3
+ 0.315 1 2 cbr 500 ------- 2 1.0 5.0 23 24
- 0.317188 1 2 cbr 500 ------- 2 1.0 5.0 15 16
r 0.319375 1 2 cbr 500 ------- 2 1.0 5.0 13 14
+ 0.319375 2 3 cbr 500 ------- 2 1.0 5.0 13 14
+ 0.32 1 2 cbr 500 ------- 2 1.0 5.0 24 25
r 0.321563 2 3 cbr 500 ------- 2 1.0 5.0 5 6
h 0.321563 3 6 cbr 500 ------- 2 1.0 5.0 5 6
r 0.323442 6 5 cbr 500 ------- 2 1.0 5.0 0 1
- 0.325 1 2 cbr 500 ------- 2 1.0 5.0 16 17
+ 0.325 1 2 cbr 500 ------- 2 1.0 5.0 25 26
r 0.327188 1 2 cbr 500 ------- 2 1.0 5.0 14 15
+ 0.327188 2 3 cbr 500 ------- 2 1.0 5.0 14 15
- 0.327188 2 3 cbr 500 ------- 2 1.0 5.0 7 8
+ 0.33 1 2 cbr 500 ------- 2 1.0 5.0 26 27
+ 0.330313 3 6 cbr 500 ------- 2 1.0 5.0 3 4
- 0.330313 3 6 cbr 500 ------- 2 1.0 5.0 3 4
d 0.330317 4 6 cbr 500 ------- 2 1.0 5.0 3 4
- 0.332813 1 2 cbr 500 ------- 2 1.0 5.0 17 18
r 0.335 1 2 cbr 500 ------- 2 1.0 5.0 15 16
+ 0.335 2 3 cbr 500 ------- 2 1.0 5.0 15 16
+ 0.335 1 2 cbr 500 ------- 2 1.0 5.0 27 28
r 0.337188 2 3 cbr 500 ------- 2 1.0 5.0 6 7
h 0.337188 3 6 cbr 500 ------- 2 1.0 5.0 6 7
r 0.339067 6 5 cbr 500 ------- 2 1.0 5.0 1 2
+ 0.34 1 2 cbr 500 ------- 2 1.0 5.0 28 29
- 0.340625 1 2 cbr 500 ------- 2 1.0 5.0 18 19
r 0.342813 1 2 cbr 500 ------- 2 1.0 5.0 16 17
+ 0.342813 2 3 cbr 500 ------- 2 1.0 5.0 16 17
- 0.342813 2 3 cbr 500 ------- 2 1.0 5.0 8 9
+ 0.345 1 2 cbr 500 ------- 2 1.0 5.0 29 30
+ 0.345938 3 6 cbr 500 ------- 2 1.0 5.0 4 5
- 0.345938 3 6 cbr 500 ------- 2 1.0 5.0 4 5
d 0.345942 4 6 cbr 500 ------- 2 1.0 5.0 4 5
- 0.348438 1 2 cbr 500 ------- 2 1.0 5.0 19 20
+ 0.35 1 2 cbr 500 ------- 2 1.0 5.0 30 31
r 0.350625 1 2 cbr 500 ------- 2 1.0 5.0 17 18
+ 0.350625 2 3 cbr 500 ------- 2 1.0 5.0 17 18
r 0.352813 2 3 cbr 500 ------- 2 1.0 5.0 7 8
h 0.352813 3 6 cbr 500 ------- 2 1.0 5.0 7 8
r 0.354692 6 5 cbr 500 ------- 2 1.0 5.0 2 3
+ 0.355 1 2 cbr 500 ------- 2 1.0 5.0 31 32
- 0.35625 1 2 cbr 500 ------- 2 1.0 5.0 20 21
r 0.358438 1 2 cbr 500 ------- 2 1.0 5.0 18 19
+ 0.358438 2 3 cbr 500 ------- 2 1.0 5.0 18 19
- 0.358438 2 3 cbr 500 ------- 2 1.0 5.0 9 10
+ 0.36 1 2 cbr 500 ------- 2 1.0 5.0 32 33
+ 0.361563 3 6 cbr 500 ------- 2 1.0 5.0 5 6
- 0.361563 3 6 cbr 500 ------- 2 1.0 5.0 5 6
d 0.361567 4 6 cbr 500 ------- 2 1.0 5.0 5 6
- 0.364063 1 2 cbr 500 ------- 2 1.0 5.0 21 22
+ 0.365 1 2 cbr 500 ------- 2 1.0 5.0 33 34
r 0.36625 1 2 cbr 500 ------- 2 1.0 5.0 19 20
+ 0.36625 2 3 cbr 500 ------- 2 1.0 5.0 19 20
r 0.368438 2 3 cbr 500 ------- 2 1.0 5.0 8 9
h 0.368438 3 6 cbr 500 ------- 2 1.0 5.0 8 9
+ 0.37 1 2 cbr 500 ------- 2 1.0 5.0 34 35
r 0.370317 6 5 cbr 500 ------- 2 1.0 5.0 3 4
- 0.371875 1 2 cbr 500 ------- 2 1.0 5.0 22 23
r 0.374063 1 2 cbr 500 ------- 2 1.0 5.0 20 21
+ 0.374063 2 3 cbr 500 ------- 2 1.0 5.0 20 21
- 0.374063 2 3 cbr 500 ------- 2 1.0 5.0 11 12
+ 0.375 1 2 cbr 500 ------- 2 1.0 5.0 35 36
+ 0.377188 3 6 cbr 500 ------- 2 1.0 5.0 6 7
- 0.377188 3 6 cbr 500 ------- 2 1.0 5.0 6 7
d 0.377192 4 6 cbr 500 ------- 2 1.0 5.0 6 7
- 0.379688 1 2 cbr 500 ------- 2 1.0 5.0 23 24
+ 0.38 1 2 cbr 500 ------- 2 1.0 5.0 36 37
r 0.381875 1 2 cbr 500 ------- 2 1.0 5.0 21 22
+ 0.381875 2 3 cbr 500 ------- 2 1.0 5.0 21 22
r 0.384063 2 3 cbr 500 ------- 2 1.0 5.0 9 10
h 0.384063 3 6 cbr 500 ------- 2 1.0 5.0 9 10
+ 0.385 1 2 cbr 500 ------- 2 1.0 5.0 37 38
r 0.385942 6 5 cbr 500 ------- 2 1.0 5.0 4 5
- 0.3875 1 2 cbr 500 ------- 2 1.0 5.0 24 25
r 0.389688 1 2 cbr 500 ------- 2 1.0 5.0 22 23
+ 0.389688 2 3 cbr 500 ------- 2 1.0 5.0 22 23
- 0.389688 2 3 cbr 500 ------- 2 1.0 5.0 12 13
+ 0.39 1 2 cbr 500 ------- 2 1.0 5.0 38 39
+ 0.392813 3 6 cbr 500 ------- 2 1.0 5.0 7 8
- 0.392813 3 6 cbr 500 ------- 2 1.0 5.0 7 8
d 0.392817 4 6 cbr 500 ------- 2 1.0 5.0 7 8
+ 0.395 1 2 cbr 500 ------- 2 1.0 5.0 39 40
- 0.395313 1 2 cbr 500 ------- 2 1.0 5.0 25 26
r 0.3975 1 2 cbr 500 ------- 2 1.0 5.0 23 24
+ 0.3975 2 3 cbr 500 ------- 2 1.0 5.0 23 24
r 0.399688 2 3 cbr 500 ------- 2 1.0 5.0 11 12
h 0.399688 3 6 cbr 500 ------- 2 1.0 5.0 11 12
+ 0.4 1 2 cbr 500 ------- 2 1.0 5.0 40 41
r 0.401567 6 5 cbr 500 ------- 2 1.0 5.0 5 6
- 0.403125 1 2 cbr 500 ------- 2 1.0 5.0 26 27
+ 0.405 1 2 cbr 500 ------- 2 1.0 5.0 41 42
r 0.405313 1 2 cbr 500 ------- 2 1.0 5.0 24 25
+ 0.405313 2 3 cbr 500 ------- 2 1.0 5.0 24 25
- 0.405313 2 3 cbr 500 ------- 2 1.0 5.0 13 14
+ 0.408438 3 6 cbr 500 ------- 2 1.0 5.0 8 9
- 0.408438 3 6 cbr 500 ------- 2 1.0 5.0 8 9
d 0.408442 4 6 cbr 500 ------- 2 1.0 5.0 8 9
+ 0.41 1 2 cbr 500 ------- 2 1.0 5.0 42 43
- 0.410938 1 2 cbr 500 ------- 2 1.0 5.0 27 28
r 0.413125 1 2 cbr 500 ------- 2 1.0 5.0 25 26
+ 0.413125 2 3 cbr 500 ------- 2 1.0 5.0 25 26
+ 0.415 1 2 cbr 500 ------- 2 1.0 5.0 43 44
r 0.415313 2 3 cbr 500 ------- 2 1.0 5.0 12 13
h 0.415313 3 6 cbr 500 ------- 2 1.0 5.0 12 13
r 0.417192 6 5 cbr 500 ------- 2 1.0 5.0 6 7
- 0.41875 1 2 cbr 500 ------- 2 1.0 5.0 28 29
+ 0.42 1 2 cbr 500 ------- 2 1.0 5.0 44 45
r 0.420938 1 2 cbr 500 ------- 2 1.0 5.0 26 27
+ 0.420938 2 3 cbr 500 ------- 2 1.0 5.0 26 27
- 0.420938 2 3 cbr 500 ------- 2 1.0 5.0 14 15
+ 0.424063 3 6 cbr 500 ------- 2 1.0 5.0 9 10
- 0.424063 3 6 cbr 500 ------- 2 1.0 5.0 9 10
d 0.424067 4 6 cbr 500 ------- 2 1.0 5.0 9 10
+ 0.425 1 2 cbr 500 ------- 2 1.0 5.0 45 46
- 0.426563 1 2 cbr 500 ------- 2 1.0 5.0 29 30
r 0.42875 1 2 cbr 500 ------- 2 1.0 5.0 27 28
+ 0.42875 2 3 cbr 500 ------- 2 1.0 5.0 27 28
+ 0.43 1 2 cbr 500 ------- 2 1.0 5.0 46 47
r 0.430938 2 3 cbr 500 ------- 2 1.0 5.0 13 14
h 0.430938 3 6 cbr 500 ------- 2 1.0 5.0 13 14
r 0.432817 6 5 cbr 500 ------- 2 1.0 5.0 7 8
- 0.434375 1 2 cbr 500 ------- 2 1.0 5.0 30 31
+ 0.435 1 2 cbr 500 ------- 2 1.0 5.0 47 48
r 0.436563 1 2 cbr 500 ------- 2 1.0 5.0 28 29
+ 0.436563 2 3 cbr 500 ------- 2 1.0 5.0 28 29
- 0.436563 2 3 cbr 500 ------- 2 1.0 5.0 15 16
+ 0.439688 3 6 cbr 500 ------- 2 1.0 5.0 11 12
- 0.439688 3 6 cbr 500 ------- 2 1.0 5.0 11 12
d 0.439692 4 6 cbr 500 ------- 2 1.0 5.0 11 12
+ 0.44 1 2 cbr 500 ------- 2 1.0 5.0 48 49
- 0.442188 1 2 cbr 500 ------- 2 1.0 5.0 31 32
r 0.444375 1 2 cbr 500 ------- 2 1.0 5.0 29 30
+ 0.444375 2 3 cbr 500 ------- 2 1.0 5.0 29 30
+ 0.445 1 2 cbr 500 ------- 2 1.0 5.0 49 50
r 0.446563 2 3 cbr 500 ------- 2 1.0 5.0 14 15
h 0.446563 3 6 cbr 500 ------- 2 1.0 5.0 14 15
r 0.448442 6 5 cbr 500 ------- 2 1.0 5.0 8 9
- 0.45 1 2 cbr 500 ------- 2 1.0 5.0 32 33
+ 0.45 1 2 cbr 500 ------- 2 1.0 5.0 50 51
r 0.452188 1 2 cbr 500 ------- 2 1.0 5.0 30 31
+ 0.452188 2 3 cbr 500 ------- 2 1.0 5.0 30 31
- 0.452188 2 3 cbr 500 ------- 2 1.0 5.0 16 17
+ 0.455 1 2 cbr 500 ------- 2 1.0 5.0 51 52
+ 0.455313 3 6 cbr 500 ------- 2 1.0 5.0 12 13
- 0.455313 3 6 cbr 500 ------- 2 1.0 5.0 12 13
d 0.455317 4 6 cbr 500 ------- 2 1.0 5.0 12 13
- 0.457813 1 2 cbr 500 ------- 2 1.0 5.0 33 34
r 0.46 1 2 cbr 500 ------- 2 1.0 5.0 31 32
+ 0.46 2 3 cbr 500 ------- 2 1.0 5.0 31 32
+ 0.46 1 2 cbr 500 ------- 2 1.0 5.0 52 53
r 0.462188 2 3 cbr 500 ------- 2 1.0 5.0 15 16
h 0.462188 3 6 cbr 500 ------- 2 1.0 5.0 15 16
r 0.464067 6 5 cbr 500 ------- 2 1.0 5.0 9 10
+ 0.465 1 2 cbr 500 ------- 2 1.0 5.0 53 54
- 0.465625 1 2 cbr 500 ------- 2 1.0 5.0 34 35
r 0.467813 1 2 cbr 500 ------- 2 1.0 5.0 32 33
+ 0.467813 2 3 cbr 500 ------- 2 1.0 5.0 32 33
- 0.467813 2 3 cbr 500 ------- 2 1.0 5.0 17 18
+ 0.47 1 2 cbr 500 ------- 2 1.0 5.0 54 55
+ 0.470938 3 6 cbr 500 ------- 2 1.0 5.0 13 14
- 0.470938 3 6 cbr 500 ------- 2 1.0 5.0 13 14
d 0.470942 4 6 cbr 500 ------- 2 1.0 5.0 13 14
- 0.473438 1 2 cbr 500 ------- 2 1.0 5.0 35 36
+ 0.475 1 2 cbr 500 ------- 2 1.0 5.0 55 56
r 0.475625 1 2 cbr 500 ------- 2 1.0 5.0 33 34
+ 0.475625 2 3 cbr 500 ------- 2 1.0 5.0 33 34
r 0.477813 2 3 cbr 500 ------- 2 1.0 5.0 16 17
h 0.477813 3 6 cbr 500 ------- 2 1.0 5.0 16 17
r 0.479692 6 5 cbr 500 ------- 2 1.0 5.0 11 12
+ 0.48 1 2 cbr 500 ------- 2 1.0 5.0 56 57
- 0.48125 1 2 cbr 500 ------- 2 1.0 5.0 36 37
r 0.483438 1 2 cbr 500 ------- 2 1.0 5.0 34 35
+ 0.483438 2 3 cbr 500 ------- 2 1.0 5.0 34 35
- 0.483438 2 3 cbr 500 ------- 2 1.0 5.0 18 19
+ 0.485 1 2 cbr 500 ------- 2 1.0 5.0 57 58
+ 0.486563 3 6 cbr 500 ------- 2 1.0 5.0 14 15
- 0.486563 3 6 cbr 500 ------- 2 1.0 5.0 14 15
d 0.486567 4 6 cbr 500 ------- 2 1.0 5.0 14 15
- 0.489063 1 2 cbr 500 ------- 2 1.0 5.0 37 38
+ 0.49 1 2 cbr 500 ------- 2 1.0 5.0 58 59
r 0.49125 1 2 cbr 500 ------- 2 1.0 5.0 35 36
+ 0.49125 2 3 cbr 500 ------- 2 1.0 5.0 35 36
r 0.493438 2 3 cbr 500 ------- 2 1.0 5.0 17 18
h 0.493438 3 6 cbr 500 ------- 2 1.0 5.0 17 18
+ 0.495 1 2 cbr 500 ------- 2 1.0 5.0 59 60
r 0.495317 6 5 cbr 500 ------- 2 1.0 5.0 12 13
- 0.496875 1 2 cbr 500 ------- 2 1.0 5.0 38 39
r 0.499063 1 2 cbr 500 ------- 2 1.0 5.0 36 37
+ 0.499063 2 3 cbr 500 ------- 2 1.0 5.0 36 37
- 0.499063 2 3 cbr 500 ------- 2 1.0 5.0 19 20
+ 0.5 1 2 cbr 500 ------- 2 1.0 5.0 60 61
+ 0.502188 3 6 cbr 500 ------- 2 1.0 5.0 15 16
- 0.502188 3 6 cbr 500 ------- 2 1.0 5.0 15 16
d 0.502192 4 6 cbr 500 ------- 2 1.0 5.0 15 16
- 0.504687 1 2 cbr 500 ------- 2 1.0 5.0 39 40
+ 0.505 1 2 cbr 500 ------- 2 1.0 5.0 61 62
r 0.506875 1 2 cbr 500 ------- 2 1.0 5.0 37 38
+ 0.506875 2 3 cbr 500 ------- 2 1.0 5.0 37 38
r 0.509063 2 3 cbr 500 ------- 2 1.0 5.0 18 19
h 0.509063 3 6 cbr 500 ------- 2 1.0 5.0 18 19
+ 0.51 1 2 cbr 500 ------- 2 1.0 5.0 62 63
r 0.510942 6 5 cbr 500 ------- 2 1.0 5.0 13 14
- 0.5125 1 2 cbr 500 ------- 2 1.0 5.0 40 41
r 0.514687 1 2 cbr 500 ------- 2 1.0 5.0 38 39
+ 0.514687 2 3 cbr 500 ------- 2 1.0 5.0 38 39
- 0.514687 2 3 cbr 500 ------- 2 1.0 5.0 20 21
+ 0.515 1 2 cbr 500 ------- 2 1.0 5.0 63 64
+ 0.517813 3 6 cbr 500 ------- 2 1.0 5.0 16 17
- 0.517813 3 6 cbr 500 ------- 2 1.0 5.0 16 17
d 0.517817 4 6 cbr 500 ------- 2 1.0 5.0 16 17
+ 0.52 1 2 cbr 500 ------- 2 1.0 5.0 64 65
- 0.520312 1 2 cbr 500 ------- 2 1.0 5.0 41 42
r 0.5225 1 2 cbr 500 ------- 2 1.0 5.0 39 40
+ 0.5225 2 3 cbr 500 ------- 2 1.0 5.0 39 40
r 0.524688 2 3 cbr 500 ------- 2 1.0 5.0 19 20
h 0.524688 3 6 cbr 500 ------- 2 1.0 5.0 19 20
+ 0.525 1 2 cbr 500 ------- 2 1.0 5.0 65 66
r 0.526567 6 5 cbr 500 ------- 2 1.0 5.0 14 15
- 0.528125 1 2 cbr 500 ------- 2 1.0 5.0 42 43
+ 0.53 1 2 cbr 500 ------- 2 1.0 5.0 66 67
r 0.530313 1 2 cbr 500 ------- 2 1.0 5.0 40 41
d 0.530313 2 3 cbr 500 ------- 2 1.0 5.0 40 41
- 0.530313 2 3 cbr 500 ------- 2 1.0 5.0 21 22
+ 0.533438 3 6 cbr 500 ------- 2 1.0 5.0 17 18
- 0.533438 3 6 cbr 500 ------- 2 1.0 5.0 17 18
d 0.533442 4 6 cbr 500 ------- 2 1.0 5.0 17 18
+ 0.535 1 2 cbr 500 ------- 2 1.0 5.0 67 68
- 0.535938 1 2 cbr 500 ------- 2 1.0 5.0 43 44
r 0.538125 1 2 cbr 500 ------- 2 1.0 5.0 41 42
d 0.538125 2 3 cbr 500 ------- 2 1.0 5.0 41 42
+ 0.54 1 2 cbr 500 ------- 2 1.0 5.0 68 69
r 0.540313 2 3 cbr 500 ------- 2 1.0 5.0 20 21
h 0.540313 3 6 cbr 500 ------- 2 1.0 5.0 20 21
r 0.542192 6 5 cbr 500 ------- 2 1.0 5.0 15 16
- 0.54375 1 2 cbr 500 ------- 2 1.0 5.0 44 45
+ 0.545 1 2 cbr 500 ------- 2 1.0 5.0 69 70
r 0.545938 1 2 cbr 500 ------- 2 1.0 5.0 42 43
+ 0.545938 2 3 cbr 500 ------- 2 1.0 5.0 42 43
- 0.545938 2 3 cbr 500 ------- 2 1.0 5.0 22 23
+ 0.549063 3 6 cbr 500 ------- 2 1.0 5.0 18 19
- 0.549063 3 6 cbr 500 ------- 2 1.0 5.0 18 19
d 0.549067 4 6 cbr 500 ------- 2 1.0 5.0 18 19
+ 0.55 1 2 cbr 500 ------- 2 1.0 5.0 70 71
- 0.551563 1 2 cbr 500 ------- 2 1.0 5.0 45 46
r 0.55375 1 2 cbr 500 ------- 2 1.0 5.0 43 44
+ 0.55375 2 3 cbr 500 ------- 2 1.0 5.0 43 44
+ 0.555 1 2 cbr 500 ------- 2 1.0 5.0 71 72
r 0.555938 2 3 cbr 500 ------- 2 1.0 5.0 21 22
h 0.555938 3 6 cbr 500 ------- 2 1.0 5.0 21 22
r 0.557817 6 5 cbr 500 ------- 2 1.0 5.0 16 17
- 0.559375 1 2 cbr 500 ------- 2 1.0 5.0 46 47
+ 0.56 1 2 cbr 500 ------- 2 1.0 5.0 72 73
r 0.561563 1 2 cbr 500 ------- 2 1.0 5.0 44 45
+ 0.561563 2 3 cbr 500 ------- 2 1.0 5.0 44 45
- 0.561563 2 3 cbr 500 ------- 2 1.0 5.0 23 24
+ 0.564688 3 6 cbr 500 ------- 2 1.0 5.0 19 20
- 0.564688 3 6 cbr 500 ------- 2 1.0 5.0 19 20
d 0.564692 4 6 cbr 500 ------- 2 1.0 5.0 19 20
+ 0.565 1 2 cbr 500 ------- 2 1.0 5.0 73 74
- 0.567188 1 2 cbr 500 ------- 2 1.0 5.0 47 48
r 0.569375 1 2 cbr 500 ------- 2 1.0 5.0 45 46
+ 0.569375 2 3 cbr 500 ------- 2 1.0 5.0 45 46
+ 0.57 1 2 cbr 500 ------- 2 1.0 5.0 74 75
r 0.571563 2 3 cbr 500 ------- 2 1.0 5.0 22 23
h 0.571563 3 6 cbr 500 ------- 2 1.0 5.0 22 23
r 0.573442 6 5 cbr 500 ------- 2 1.0 5.0 17 18
- 0.575 1 2 cbr 500 ------- 2 1.0 5.0 48 49
+ 0.575 1 2 cbr 500 ------- 2 1.0 5.0 75 76
r 0.577188 1 2 cbr 500 ------- 2 1.0 5.0 46 47
+ 0.577188 2 3 cbr 500 ------- 2 1.0 5.0 46 47
- 0.577188 2 3 cbr 500 ------- 2 1.0 5.0 24 25
+ 0.58 1 2 cbr 500 ------- 2 1.0 5.0 76 77
+ 0.580313 3 6 cbr 500 ------- 2 1.0 5.0 20 21
- 0.580313 3 6 cbr 500 ------- 2 1.0 5.0 20 21
d 0.580317 4 6 cbr 500 ------- 2 1.0 5.0 20 21
- 0.582813 1 2 cbr 500 ------- 2 1.0 5.0 49 50
r 0.585 1 2 cbr 500 ------- 2 1.0 5.0 47 48
+ 0.585 2 3 cbr 500 ------- 2 1.0 5.0 47 48
+ 0.585 1 2 cbr 500 ------- 2 1.0 5.0 77 78
r 0.587188 2 3 cbr 500 ------- 2 1.0 5.0 23 24
h 0.587188 3 6 cbr 500 ------- 2 1.0 5.0 23 24
r 0.589067 6 5 cbr 500 ------- 2 1.0 5.0 18 19
+ 0.59 1 2 cbr 500 ------- 2 1.0 5.0 78 79
- 0.590625 1 2 cbr 500 ------- 2 1.0 5.0 50 51
r 0.592813 1 2 cbr 500 ------- 2 1.0 5.0 48 49
+ 0.592813 2 3 cbr 500 ------- 2 1.0 5.0 48 49
- 0.592813 2 3 cbr 500 ------- 2 1.0 5.0 25 26
+ 0.595 1 2 cbr 500 ------- 2 1.0 5.0 79 80
+ 0.595938 3 6 cbr 500 ------- 2 1.0 5.0 21 22
- 0.595938 3 6 cbr 500 ------- 2 1.0 5.0 21 22
d 0.595942 4 6 cbr 500 ------- 2 1.0 5.0 21 22
- 0.598438 1 2 cbr 500 ------- 2 1.0 5.0 51 52
+ 0.6 1 2 cbr 500 ------- 2 1.0 5.0 80 81
r 0.600625 1 2 cbr 500 ------- 2 1.0 5.0 49 50
+ 0.600625 2 3 cbr 500 ------- 2 1.0 5.0 49 50
r 0.602813 2 3 cbr 500 ------- 2 1.0 5.0 24 25
h 0.602813 3 6 cbr 500 ------- 2 1.0 5.0 24 25
r 0.604692 6 5 cbr 500 ------- 2 1.0 5.0 19 20
+ 0.605 1 2 cbr 500 ------- 2 1.0 5.0 81 82
- 0.60625 1 2 cbr 500 ------- 2 1.0 5.0 52 53
r 0.608438 1 2 cbr 500 ------- 2 1.0 5.0 50 51
+ 0.608438 2 3 cbr 500 ------- 2 1.0 5.0 50 51
- 0.608438 2 3 cbr 500 ------- 2 1.0 5.0 26 27
+ 0.61 1 2 cbr 500 ------- 2 1.0 5.0 82 83
+ 0.611563 3 6 cbr 500 ------- 2 1.0 5.0 22 23
- 0.611563 3 6 cbr 500 ------- 2 1.0 5.0 22 23
d 0.611567 4 6 cbr 500 ------- 2 1.0 5.0 22 23
- 0.614063 1 2 cbr 500 ------- 2 1.0 5.0 53 54
+ 0.615 1 2 cbr 500 ------- 2 1.0 5.0 83 84
r 0.61625 1 2 cbr 500 ------- 2 1.0 5.0 51 52
+ 0.61625 2 3 cbr 500 ------- 2 1.0 5.0 51 52
r 0.618438 2 3 cbr 500 ------- 2 1.0 5.0 25 26
h 0.618438 3 6 cbr 500 ------- 2 1.0 5.0 25 26
+ 0.62 1 2 cbr 500 ------- 2 1.0 5.0 84 85
r 0.620317 6 5 cbr 500 ------- 2 1.0 5.0 20 21
- 0.621875 1 2 cbr 500 ------- 2 1.0 5.0 54 55
r 0.624063 1 2 cbr 500 ------- 2 1.0 5.0 52 53
+ 0.624063 2 3 cbr 500 ------- 2 1.0 5.0 52 53
- 0.624063 2 3 cbr 500 ------- 2 1.0 5.0 27 28
+ 0.625 1 2 cbr 500 ------- 2 1.0 5.0 85 86
+ 0.627188 3 6 cbr 500 ------- 2 1.0 5.0 23 24
- 0.627188 3 6 cbr 500 ------- 2 1.0 5.0 23 24
d 0.627192 4 6 cbr 500 ------- 2 1.0 5.0 23 24
- 0.629688 1 2 cbr 500 ------- 2 1.0 5.0 55 56
+ 0.63 1 2 cbr 500 ------- 2 1.0 5.0 86 87
r 0.631875 1 2 cbr 500 ------- 2 1.0 5.0 53 54
d 0.631875 2 3 cbr 500 ------- 2 1.0 5.0 53 54
r 0.634063 2 3 cbr 500 ------- 2 1.0 5.0 26 27
h 0.634063 3 6 cbr 500 ------- 2 1.0 5.0 26 27
+ 0.635 1 2 cbr 500 ------- 2 1.0 5.0 87 88
r 0.635942 6 5 cbr 500 ------- 2 1.0 5.0 21 22
- 0.6375 1 2 cbr 500 ------- 2 1.0 5.0 56 57
r 0.639688 1 2 cbr 500 ------- 2 1.0 5.0 54 55
+ 0.639688 2 3 cbr 500 ------- 2 1.0 5.0 54 55
- 0.639688 2 3 cbr 500 ------- 2 1.0 5.0 28 29
+ 0.64 1 2 cbr 500 ------- 2 1.0 5.0 88 89
+ 0.642813 3 6 cbr 500 ------- 2 1.0 5.0 24 25
- 0.642813 3 6 cbr 500 ------- 2 1.0 5.0 24 25
d 0.642817 4 6 cbr 500 ------- 2 1.0 5.0 24 25
+ 0.645 1 2 cbr 500 ------- 2 1.0 5.0 89 90
- 0.645313 1 2 cbr 500 ------- 2 1.0 5.0 57 58
r 0.6475 1 2 cbr 500 ------- 2 1.0 5.0 55 56
+ 0.6475 2 3 cbr 500 ------- 2 1.0 5.0 55 56
r 0.649688 2 3 cbr 500 ------- 2 1.0 5.0 27 28
h 0.649688 3 6 cbr 500 ------- 2 1.0 5.0 27 28
+ 0.65 1 2 cbr 500 ------- 2 1.0 5.0 90 91
r 0.651567 6 5 cbr 500 ------- 2 1.0 5.0 22 23
- 0.653125 1 2 cbr 500 ------- 2 1.0 5.0 58 59
+ 0.655 1 2 cbr 500 ------- 2 1.0 5.0 91 92
r 0.655313 1 2 cbr 500 ------- 2 1.0 5.0 56 57
+ 0.655313 2 3 cbr 500 ------- 2 1.0 5.0 56 57
- 0.655313 2 3 cbr 500 ------- 2 1.0 5.0 29 30
+ 0.658438 3 6 cbr 500 ------- 2 1.0 5.0 25 26
- 0.658438 3 6 cbr 500 ------- 2 1.0 5.0 25 26
d 0.658442 4 6 cbr 500 ------- 2 1.0 5.0 25 26
+ 0.66 1 2 cbr 500 ------- 2 1.0 5.0 92 93
- 0.660938 1 2 cbr 500 ------- 2 1.0 5.0 59 60
r 0.663125 1 2 cbr 500 ------- 2 1.0 5.0 57 58
+ 0.663125 2 3 cbr 500 ------- 2 1.0 5.0 57 58
+ 0.665 1 2 cbr 500 ------- 2 1.0 5.0 93 94
r 0.665313 2 3 cbr 500 ------- 2 1.0 5.0 28 29
h 0.665313 3 6 cbr 500 ------- 2 1.0 5.0 28 29
r 0.667192 6 5 cbr 500 ------- 2 1.0 5.0 23 24
- 0.66875 1 2 cbr 500 ------- 2 1.0 5.0 60 61
+ 0.67 1 2 cbr 500 ------- 2 1.0 5.0 94 95
r 0.670938 1 2 cbr 500 ------- 2 1.0 5.0 58 59
+ 0.670938 2 3 cbr 500 ------- 2 1.0 5.0 58 59
- 0.670938 2 3 cbr 500 ------- 2 1.0 5.0 30 31
+ 0.674063 3 6 cbr 500 ------- 2 1.0 5.0 26 27
- 0.674063 3 6 cbr 500 ------- 2 1.0 5.0 26 27
d 0.674067 4 6 cbr 500 ------- 2 1.0 5.0 26 27
+ 0.675 1 2 cbr 500 ------- 2 1.0 5.0 95 96
- 0.676563 1 2 cbr 500 ------- 2 1.0 5.0 61 62
r 0.67875 1 2 cbr 500 ------- 2 1.0 5.0 59 60
+ 0.67875 2 3 cbr 500 ------- 2 1.0 5.0 59 60
+ 0.68 1 2 cbr 500 ------- 2 1.0 5.0 96 97
r 0.680938 2 3 cbr 500 ------- 2 1.0 5.0 29 30
h 0.680938 3 6 cbr 500 ------- 2 1.0 5.0 29 30
r 0.682817 6 5 cbr 500 ------- 2 1.0 5.0 24 25
- 0.684375 1 2 cbr 500 ------- 2 1.0 5.0 62 63
+ 0.685 1 2 cbr 500 ------- 2 1.0 5.0 97 98
r 0.686563 1 2 cbr 500 ------- 2 1.0 5.0 60 61
+ 0.686563 2 3 cbr 500 ------- 2 1.0 5.0 60 61
- 0.686563 2 3 cbr 500 ------- 2 1.0 5.0 31 32
+ 0.689688 3 6 cbr 500 ------- 2 1.0 5.0 27 28
- 0.689688 3 6 cbr 500 ------- 2 1.0 5.0 27 28
d 0.689692 4 6 cbr 500 ------- 2 1.0 5.0 27 28
+ 0.69 1 2 cbr 500 ------- 2 1.0 5.0 98 99
- 0.692188 1 2 cbr 500 ------- 2 1.0 5.0 63 64
r 0.694375 1 2 cbr 500 ------- 2 1.0 5.0 61 62
+ 0.694375 2 3 cbr 500 ------- 2 1.0 5.0 61 62
+ 0.695 1 2 cbr 500 ------- 2 1.0 5.0 99 100
r 0.696563 2 3 cbr 500 ------- 2 1.0 5.0 30 31
h 0.696563 3 6 cbr 500 ------- 2 1.0 5.0 30 31
r 0.698442 6 5 cbr 500 ------- 2 1.0 5.0 25 26
- 0.7 1 2 cbr 500 ------- 2 1.0 5.0 64 65
+ 0.7 1 2 cbr 500 ------- 2 1.0 5.0 100 101
r 0.702188 1 2 cbr 500 ------- 2 1.0 5.0 62 63
+ 0.702188 2 3 cbr 500 ------- 2 1.0 5.0 62 63
- 0.702188 2 3 cbr 500 ------- 2 1.0 5.0 32 33
+ 0.705 1 2 cbr 500 ------- 2 1.0 5.0 101 102
+ 0.705313 3 6 cbr 500 ------- 2 1.0 5.0 28 29
- 0.705313 3 6 cbr 500 ------- 2 1.0 5.0 28 29
d 0.705317 4 6 cbr 500 ------- 2 1.0 5.0 28 29
- 0.707813 1 2 cbr 500 ------- 2 1.0 5.0 65 66
r 0.71 1 2 cbr 500 ------- 2 1.0 5.0 63 64
+ 0.71 2 3 cbr 500 ------- 2 1.0 5.0 63 64
+ 0.71 1 2 cbr 500 ------- 2 1.0 5.0 102 103
r 0.712188 2 3 cbr 500 ------- 2 1.0 5.0 31 32
h 0.712188 3 6 cbr 500 ------- 2 1.0 5.0 31 32
r 0.714067 6 5 cbr 500 ------- 2 1.0 5.0 26 27
+ 0.715 1 2 cbr 500 ------- 2 1.0 5.0 103 104
- 0.715625 1 2 cbr 500 ------- 2 1.0 5.0 66 67
r 0.717813 1 2 cbr 500 ------- 2 1.0 5.0 64 65
+ 0.717813 2 3 cbr 500 ------- 2 1.0 5.0 64 65
- 0.717813 2 3 cbr 500 ------- 2 1.0 5.0 33 34
+ 0.72 1 2 cbr 500 ------- 2 1.0 5.0 104 105
+ 0.720938 3 6 cbr 500 ------- 2 1.0 5.0 29 30
- 0.720938 3 6 cbr 500 ------- 2 1.0 5.0 29 30
d 0.720942 4 6 cbr 500 ------- 2 1.0 5.0 29 30
- 0.723438 1 2 cbr 500 ------- 2 1.0 5.0 67 68
+ 0.725 1 2 cbr 500 ------- 2 1.0 5.0 105 106
r 0.725625 1 2 cbr 500 ------- 2 1.0 5.0 65 66
d 0.725625 2 3 cbr 500 ------- 2 1.0 5.0 65 66
r 0.727813 2 3 cbr 500 ------- 2 1.0 5.0 32 33
h 0.727813 3 6 cbr 500 ------- 2 1.0 5.0 32 33
r 0.729692 6 5 cbr 500 ------- 2 1.0 5.0 27 28
+ 0.73 1 2 cbr 500 ------- 2 1.0 5.0 106 107
- 0.73125 1 2 cbr 500 ------- 2 1.0 5.0 68 69
r 0.733438 1 2 cbr 500 ------- 2 1.0 5.0 66 67
+ 0.733438 2 3 cbr 500 ------- 2 1.0 5.0 66 67
- 0.733438 2 3 cbr 500 ------- 2 1.0 5.0 34 35
+ 0.735 1 2 cbr 500 ------- 2 1.0 5.0 107 108
+ 0.736563 3 6 cbr 500 ------- 2 1.0 5.0 30 31
- 0.736563 3 6 cbr 500 ------- 2 1.0 5.0 30 31
d 0.736567 4 6 cbr 500 ------- 2 1.0 5.0 30 31
- 0.739063 1 2 cbr 500 ------- 2 1.0 5.0 69 70
+ 0.74 1 2 cbr 500 ------- 2 1.0 5.0 108 109
r 0.74125 1 2 cbr 500 ------- 2 1.0 5.0 67 68
+ 0.74125 2 3 cbr 500 ------- 2 1.0 5.0 67 68
r 0.743438 2 3 cbr 500 ------- 2 1.0 5.0 33 34
h 0.743438 3 6 cbr 500 ------- 2 1.0 5.0 33 34
+ 0.745 1 2 cbr 500 ------- 2 1.0 5.0 109 110
r 0.745317 6 5 cbr 500 ------- 2 1.0 5.0 28 29
- 0.746875 1 2 cbr 500 ------- 2 1.0 5.0 70 71
r 0.749063 1 2 cbr 500 ------- 2 1.0 5.0 68 69
+ 0.749063 2 3 cbr 500 ------- 2 1.0 5.0 68 69
- 0.749063 2 3 cbr 500 ------- 2 1.0 5.0 35 36
+ 0.75 1 2 cbr 500 ------- 2 1.0 5.0 110 111
+ 0.752188 3 6 cbr 500 ------- 2 1.0 5.0 31 32
- 0.752188 3 6 cbr 500 ------- 2 1.0 5.0 31 32
d 0.752192 4 6 cbr 500 ------- 2 1.0 5.0 31 32
- 0.754688 1 2 cbr 500 ------- 2 1.0 5.0 71 72
+ 0.755 1 2 cbr 500 ------- 2 1.0 5.0 111 112
r 0.756875 1 2 cbr 500 ------- 2 1.0 5.0 69 70
+ 0.756875 2 3 cbr 500 ------- 2 1.0 5.0 69 70
r 0.759063 2 3 cbr 500 ------- 2 1.0 5.0 34 35
h 0.759063 3 6 cbr 500 ------- 2 1.0 5.0 34 35
+ 0.76 1 2 cbr 500 ------- 2 1.0 5.0 112 113
r 0.760942 6 5 cbr 500 ------- 2 1.0 5.0 29 30
- 0.7625 1 2 cbr 500 ------- 2 1.0 5.0 72 73
r 0.764688 1 2 cbr 500 ------- 2 1.0 5.0 70 71
+ 0.764688 2 3 cbr 500 ------- 2 1.0 5.0 70 71
- 0.764688 2 3 cbr 500 ------- 2 1.0 5.0 36 37
+ 0.765 1 2 cbr 500 ------- 2 1.0 5.0 113 114
+ 0.767813 3 6 cbr 500 ------- 2 1.0 5.0 32 33
- 0.767813 3 6 cbr 500 ------- 2 1.0 5.0 32 33
d 0.767817 4 6 cbr 500 ------- 2 1.0 5.0 32 33
+ 0.77 1 2 cbr 500 ------- 2 1.0 5.0 114 115
- 0.770313 1 2 cbr 500 ------- 2 1.0 5.0 73 74
r 0.7725 1 2 cbr 500 ------- 2 1.0 5.0 71 72
+ 0.7725 2 3 cbr 500 ------- 2 1.0 5.0 71 72
r 0.774688 2 3 cbr 500 ------- 2 1.0 5.0 35 36
h 0.774688 3 6 cbr 500 ------- 2 1.0 5.0 35 36
+ 0.775 1 2 cbr 500 ------- 2 1.0 5.0 115 116
r 0.776567 6 5 cbr 500 ------- 2 1.0 5.0 30 31
- 0.778125 1 2 cbr 500 ------- 2 1.0 5.0 74 75
+ 0.78 1 2 cbr 500 ------- 2 1.0 5.0 116 117
r 0.780313 1 2 cbr 500 ------- 2 1.0 5.0 72 73
+ 0.780313 2 3 cbr 500 ------- 2 1.0 5.0 72 73
- 0.780313 2 3 cbr 500 ------- 2 1.0 5.0 37 38
+ 0.783438 3 6 cbr 500 ------- 2 1.0 5.0 33 34
- 0.783438 3 6 cbr 500 ------- 2 1.0 5.0 33 34
d 0.783442 4 6 cbr 500 ------- 2 1.0 5.0 33 34
+ 0.785 1 2 cbr 500 ------- 2 1.0 5.0 117 118
- 0.785938 1 2 cbr 500 ------- 2 1.0 5.0 75 76
r 0.788125 1 2 cbr 500 ------- 2 1.0 5.0 73 74
+ 0.788125 2 3 cbr 500 ------- 2 1.0 5.0 73 74
+ 0.79 1 2 cbr 500 ------- 2 1.0 5.0 118 119
r 0.790313 2 3 cbr 500 ------- 2 1.0 5.0 36 37
h 0.790313 3 6 cbr 500 ------- 2 1.0 5.0 36 37
r 0.792192 6 5 cbr 500 ------- 2 1.0 5.0 31 32
- 0.79375 1 2 cbr 500 ------- 2 1.0 5.0 76 77
+ 0.795 1 2 cbr 500 ------- 2 1.0 5.0 119 120
r 0.795938 1 2 cbr 500 ------- 2 1.0 5.0 74 75
+ 0.795938 2 3 cbr 500 ------- 2 1.0 5.0 74 75
- 0.795938 2 3 cbr 500 ------- 2 1.0 5.0 38 39
+ 0.799063 3 6 cbr 500 ------- 2 1.0 5.0 34 35
- 0.799063 3 6 cbr 500 ------- 2 1.0 5.0 34 35
d 0.799067 4 6 cbr 500 ------- 2 1.0 5.0 34 35
+ 0.8 1 2 cbr 500 ------- 2 1.0 5.0 120 121
- 0.801563 1 2 cbr 500 ------- 2 1.0 5.0 77 78
r 0.80375 1 2 cbr 500 ------- 2 1.0 5.0 75 76
+ 0.80375 2 3 cbr 500 ------- 2 1.0 5.0 75 76
+ 0.805 1 2 cbr 500 ------- 2 1.0 5.0 121 122
r 0.805938 2 3 cbr 500 ------- 2 1.0 5.0 37 38
h 0.805938 3 6 cbr 500 ------- 2 1.0 5.0 37 38
r 0.807817 6 5 cbr 500 ------- 2 1.0 5.0 32 33
- 0.809375 1 2 cbr 500 ------- 2 1.0 5.0 78 79
+ 0.81 1 2 cbr 500 ------- 2 1.0 5.0 122 123
r 0.811563 1 2 cbr 500 ------- 2 1.0 5.0 76 77
+ 0.811563 2 3 cbr 500 ------- 2 1.0 5.0 76 77
- 0.811563 2 3 cbr 500 ------- 2 1.0 5.0 39 40
+ 0.814688 3 6 cbr 500 ------- 2 1.0 5.0 35 36
- 0.814688 3 6 cbr 500 ------- 2 1.0 5.0 35 36
d 0.814692 4 6 cbr 500 ------- 2 1.0 5.0 35 36
+ 0.815 1 2 cbr 500 ------- 2 1.0 5.0 123 124
- 0.817188 1 2 cbr 500 ------- 2 1.0 5.0 79 80
r 0.819375 1 2 cbr 500 ------- 2 1.0 5.0 77 78
+ 0.819375 2 3 cbr 500 ------- 2 1.0 5.0 77 78
+ 0.82 1 2 cbr 500 ------- 2 1.0 5.0 124 125
r 0.821563 2 3 cbr 500 ------- 2 1.0 5.0 38 39
h 0.821563 3 6 cbr 500 ------- 2 1.0 5.0 38 39
r 0.823442 6 5 cbr 500 ------- 2 1.0 5.0 33 34
- 0.825 1 2 cbr 500 ------- 2 1.0 5.0 80 81
+ 0.825 1 2 cbr 500 ------- 2 1.0 5.0 125 126
r 0.827188 1 2 cbr 500 ------- 2 1.0 5.0 78 79
+ 0.827188 2 3 cbr 500 ------- 2 1.0 5.0 78 79
- 0.827188 2 3 cbr 500 ------- 2 1.0 5.0 42 43
+ 0.83 1 2 cbr 500 ------- 2 1.0 5.0 126 127
+ 0.830313 3 6 cbr 500 ------- 2 1.0 5.0 36 37
- 0.830313 3 6 cbr 500 ------- 2 1.0 5.0 36 37
d 0.830317 4 6 cbr 500 ------- 2 1.0 5.0 36 37
- 0.832813 1 2 cbr 500 ------- 2 1.0 5.0 81 82
r 0.835 1 2 cbr 500 ------- 2 1.0 5.0 79 80
+ 0.835 2 3 cbr 500 ------- 2 1.0 5.0 79 80
+ 0.835 1 2 cbr 500 ------- 2 1.0 5.0 127 128
r 0.837188 2 3 cbr 500 ------- 2 1.0 5.0 39 40
h 0.837188 3 6 cbr 500 ------- 2 1.0 5.0 39 40
r 0.839067 6 5 cbr 500 ------- 2 1.0 5.0 34 35
+ 0.84 1 2 cbr 500 ------- 2 1.0 5.0 128 129
- 0.840625 1 2 cbr 500 ------- 2 1.0 5.0 82 83
r 0.842813 1 2 cbr 500 ------- 2 1.0 5.0 80 81
+ 0.842813 2 3 cbr 500 ------- 2 1.0 5.0 80 81
- 0.842813 2 3 cbr 500 ------- 2 1.0 5.0 43 44
+ 0.845 1 2 cbr 500 ------- 2 1.0 5.0 129 130
+ 0.845938 3 6 cbr 500 ------- 2 1.0 5.0 37 38
- 0.845938 3 6 cbr 500 ------- 2 1.0 5.0 37 38
d 0.845942 4 6 cbr 500 ------- 2 1.0 5.0 37 38
- 0.848438 1 2 cbr 500 ------- 2 1.0 5.0 83 84
+ 0.85 1 2 cbr 500 ------- 2 1.0 5.0 130 131
r 0.850625 1 2 cbr 500 ------- 2 1.0 5.0 81 82
+ 0.850625 2 3 cbr 500 ------- 2 1.0 5.0 81 82
r 0.852813 2 3 cbr 500 ------- 2 1.0 5.0 42 43
h 0.852813 3 6 cbr 500 ------- 2 1.0 5.0 42 43
r 0.854692 6 5 cbr 500 ------- 2 1.0 5.0 35 36
+ 0.855 1 2 cbr 500 ------- 2 1.0 5.0 131 132
- 0.85625 1 2 cbr 500 ------- 2 1.0 5.0 84 85
r 0.858438 1 2 cbr 500 ------- 2 1.0 5.0 82 83
+ 0.858438 2 3 cbr 500 ------- 2 1.0 5.0 82 83